Title Card Required                                                     
SP        CASSCF                                                      6-311++G(d,p)       
Number of atoms                            I                6
Info1-9                                    I   N=           9
          10           9           0           0           0         110
           1           1           2
Charge                                     I                0
Multiplicity                               I                1
Number of electrons                        I               16
Number of alpha electrons                  I                8
Number of beta electrons                   I                8
Number of basis functions                  I               72
Number of independent functions            I               72
Number of point charges in /Mol/           I                0
Number of translation vectors              I                0
Atomic numbers                             I   N=           6
           6           6           1           1           1           1
Nuclear charges                            R   N=           6
  6.00000000E+00  6.00000000E+00  1.00000000E+00  1.00000000E+00  1.00000000E+00
  1.00000000E+00
Current cartesian coordinates              R   N=          18
  0.00000000E+00 -4.93038066E-32  1.25944911E+00  1.54238033E-16 -4.93038066E-32
 -1.25944911E+00  0.00000000E+00  1.73748964E+00  2.34286645E+00 -2.12781112E-16
 -1.73748964E+00  2.34286645E+00  2.86918389E-16  1.73748964E+00 -2.34286645E+00
 -2.12781112E-16 -1.73748964E+00 -2.34286645E+00
Force Field                                I                0
Int Atom Types                             I   N=           6
           0           0           0           0           0           0
MM charges                                 R   N=           6
  0.00000000E+00  0.00000000E+00  0.00000000E+00  0.00000000E+00  0.00000000E+00
  0.00000000E+00
Integer atomic weights                     I   N=           6
          12          12           1           1           1           1
Real atomic weights                        R   N=           6
  1.20000000E+01  1.20000000E+01  1.00782504E+00  1.00782504E+00  1.00782504E+00
  1.00782504E+00
Atom fragment info                         I   N=           6
           0           0           0           0           0           0
Atom residue num                           I   N=           6
           0           0           0           0           0           0
Nuclear spins                              I   N=           6
           0           0           1           1           1           1
Nuclear ZEff                               R   N=           6
 -3.60000000E+00 -3.60000000E+00 -1.00000000E+00 -1.00000000E+00 -1.00000000E+00
 -1.00000000E+00
Nuclear ZNuc                               R   N=           6
  6.00000000E+00  6.00000000E+00  1.00000000E+00  1.00000000E+00  1.00000000E+00
  1.00000000E+00
Nuclear QMom                               R   N=           6
  0.00000000E+00  0.00000000E+00  0.00000000E+00  0.00000000E+00  0.00000000E+00
  0.00000000E+00
Nuclear GFac                               R   N=           6
  0.00000000E+00  0.00000000E+00  2.79284600E+00  2.79284600E+00  2.79284600E+00
  2.79284600E+00
MicOpt                                     I   N=           6
          -1          -1          -1          -1          -1          -1
Number of contracted shells                I               32
Number of primitive shells                 I               54
Pure/Cartesian d shells                    I                0
Pure/Cartesian f shells                    I                0
Highest angular momentum                   I                2
Largest degree of contraction              I                6
Shell types                                I   N=          32
           0          -1          -1          -1          -1          -2
           0          -1          -1          -1          -1          -2
           0           0           0           0           1           0
           0           0           0           1           0           0
           0           0           1           0           0           0
           0           1
Number of primitives per shell             I   N=          32
           6           3           1           1           1           1
           6           3           1           1           1           1
           3           1           1           1           1           3
           1           1           1           1           3           1
           1           1           1           3           1           1
           1           1
Shell to atom map                          I   N=          32
           1           1           1           1           1           1
           2           2           2           2           2           2
           3           3           3           3           3           4
           4           4           4           4           5           5
           5           5           5           6           6           6
           6           6
Primitive exponents                        R   N=          54
  4.56324000E+03  6.82024000E+02  1.54973000E+02  4.44553000E+01  1.30290000E+01
  1.82773000E+00  2.09642000E+01  4.80331000E+00  1.45933000E+00  4.83456000E-01
  1.45585000E-01  4.38000000E-02  6.26000000E-01  4.56324000E+03  6.82024000E+02
  1.54973000E+02  4.44553000E+01  1.30290000E+01  1.82773000E+00  2.09642000E+01
  4.80331000E+00  1.45933000E+00  4.83456000E-01  1.45585000E-01  4.38000000E-02
  6.26000000E-01  3.38650000E+01  5.09479000E+00  1.15879000E+00  3.25840000E-01
  1.02741000E-01  3.60000000E-02  7.50000000E-01  3.38650000E+01  5.09479000E+00
  1.15879000E+00  3.25840000E-01  1.02741000E-01  3.60000000E-02  7.50000000E-01
  3.38650000E+01  5.09479000E+00  1.15879000E+00  3.25840000E-01  1.02741000E-01
  3.60000000E-02  7.50000000E-01  3.38650000E+01  5.09479000E+00  1.15879000E+00
  3.25840000E-01  1.02741000E-01  3.60000000E-02  7.50000000E-01
Contraction coefficients                   R   N=          54
  1.96665025E-03  1.52306019E-02  7.61269097E-02  2.60801033E-01  6.16462078E-01
  2.21006028E-01  1.14660081E-01  9.19999648E-01 -3.03068213E-03  1.00000000E+00
  1.00000000E+00  1.00000000E+00  1.00000000E+00  1.96665025E-03  1.52306019E-02
  7.61269097E-02  2.60801033E-01  6.16462078E-01  2.21006028E-01  1.14660081E-01
  9.19999648E-01 -3.03068213E-03  1.00000000E+00  1.00000000E+00  1.00000000E+00
  1.00000000E+00  2.54938145E-02  1.90373109E-01  8.52161486E-01  1.00000000E+00
  1.00000000E+00  1.00000000E+00  1.00000000E+00  2.54938145E-02  1.90373109E-01
  8.52161486E-01  1.00000000E+00  1.00000000E+00  1.00000000E+00  1.00000000E+00
  2.54938145E-02  1.90373109E-01  8.52161486E-01  1.00000000E+00  1.00000000E+00
  1.00000000E+00  1.00000000E+00  2.54938145E-02  1.90373109E-01  8.52161486E-01
  1.00000000E+00  1.00000000E+00  1.00000000E+00  1.00000000E+00
P(S=P) Contraction coefficients            R   N=          54
  0.00000000E+00  0.00000000E+00  0.00000000E+00  0.00000000E+00  0.00000000E+00
  0.00000000E+00  4.02486927E-02  2.37593957E-01  8.15853851E-01  1.00000000E+00
  1.00000000E+00  1.00000000E+00  0.00000000E+00  0.00000000E+00  0.00000000E+00
  0.00000000E+00  0.00000000E+00  0.00000000E+00  0.00000000E+00  4.02486927E-02
  2.37593957E-01  8.15853851E-01  1.00000000E+00  1.00000000E+00  1.00000000E+00
  0.00000000E+00  0.00000000E+00  0.00000000E+00  0.00000000E+00  0.00000000E+00
  0.00000000E+00  0.00000000E+00  0.00000000E+00  0.00000000E+00  0.00000000E+00
  0.00000000E+00  0.00000000E+00  0.00000000E+00  0.00000000E+00  0.00000000E+00
  0.00000000E+00  0.00000000E+00  0.00000000E+00  0.00000000E+00  0.00000000E+00
  0.00000000E+00  0.00000000E+00  0.00000000E+00  0.00000000E+00  0.00000000E+00
  0.00000000E+00  0.00000000E+00  0.00000000E+00  0.00000000E+00
Coordinates of each shell                  R   N=          96
  0.00000000E+00 -4.93038066E-32  1.25944911E+00  0.00000000E+00 -4.93038066E-32
  1.25944911E+00  0.00000000E+00 -4.93038066E-32  1.25944911E+00  0.00000000E+00
 -4.93038066E-32  1.25944911E+00  0.00000000E+00 -4.93038066E-32  1.25944911E+00
  0.00000000E+00 -4.93038066E-32  1.25944911E+00  1.54238033E-16 -1.47911420E-31
 -1.25944911E+00  1.54238033E-16 -1.47911420E-31 -1.25944911E+00  1.54238033E-16
 -1.47911420E-31 -1.25944911E+00  1.54238033E-16 -1.47911420E-31 -1.25944911E+00
  1.54238033E-16 -1.47911420E-31 -1.25944911E+00  1.54238033E-16 -1.47911420E-31
 -1.25944911E+00  0.00000000E+00  1.73748964E+00  2.34286645E+00  0.00000000E+00
  1.73748964E+00  2.34286645E+00  0.00000000E+00  1.73748964E+00  2.34286645E+00
  0.00000000E+00  1.73748964E+00  2.34286645E+00  0.00000000E+00  1.73748964E+00
  2.34286645E+00 -2.12781112E-16 -1.73748964E+00  2.34286645E+00 -2.12781112E-16
 -1.73748964E+00  2.34286645E+00 -2.12781112E-16 -1.73748964E+00  2.34286645E+00
 -2.12781112E-16 -1.73748964E+00  2.34286645E+00 -2.12781112E-16 -1.73748964E+00
  2.34286645E+00  2.86918389E-16  1.73748964E+00 -2.34286645E+00  2.86918389E-16
  1.73748964E+00 -2.34286645E+00  2.86918389E-16  1.73748964E+00 -2.34286645E+00
  2.86918389E-16  1.73748964E+00 -2.34286645E+00  2.86918389E-16  1.73748964E+00
 -2.34286645E+00 -2.12781112E-16 -1.73748964E+00 -2.34286645E+00 -2.12781112E-16
 -1.73748964E+00 -2.34286645E+00 -2.12781112E-16 -1.73748964E+00 -2.34286645E+00
 -2.12781112E-16 -1.73748964E+00 -2.34286645E+00 -2.12781112E-16 -1.73748964E+00
 -2.34286645E+00
Constraint Structure                       R   N=          18
  0.00000000E+00 -4.93038066E-32  1.25944911E+00  1.54238033E-16 -1.47911420E-31
 -1.25944911E+00  0.00000000E+00  1.73748964E+00  2.34286645E+00 -2.12781112E-16
 -1.73748964E+00  2.34286645E+00  2.86918389E-16  1.73748964E+00 -2.34286645E+00
 -2.12781112E-16 -1.73748964E+00 -2.34286645E+00
Num ILSW                                   I              100
ILSW                                       I   N=         100
           0           0           0           0           0           0
           0           0           0           0           0          -1
           0           0           0           0           0           0
           0           0           1           3           0           0
           1           0           0           0           0           0
           0           0      100000           0          -1           0
           0           0           0           0           0           0
           0           0           0           1           0           0
           0           0           1           0           0         602
           0           0           4          41           0           0
           0           0           0           0           0           0
           0           0           0           0           0           0
           0           0           0           0           0           0
           0           0           0           0           0           0
           0           0           0           0           0           0
           0           0           0           0           0           0
           0           0           0           0
Num RLSW                                   I               41
RLSW                                       R   N=          41
  1.00000000E+00  1.00000000E+00  1.00000000E+00  1.00000000E+00  1.00000000E+00
  0.00000000E+00  0.00000000E+00  1.00000000E+00  0.00000000E+00  0.00000000E+00
  0.00000000E+00  0.00000000E+00  1.00000000E+00  0.00000000E+00  0.00000000E+00
  0.00000000E+00  0.00000000E+00  1.00000000E+00  0.00000000E+00  0.00000000E+00
  0.00000000E+00  0.00000000E+00  1.00000000E+00  0.00000000E+00  0.00000000E+00
  0.00000000E+00  0.00000000E+00  1.00000000E+00  0.00000000E+00  0.00000000E+00
  0.00000000E+00  0.00000000E+00  1.00000000E+00  0.00000000E+00  0.00000000E+00
  0.00000000E+00  0.00000000E+00  0.00000000E+00  1.00000000E+00  1.00000000E+00
  0.00000000E+00
Number of CAS Electrons                    I                2
Number of CAS Orbitals                     I                6
MxBond                                     I                3
NBond                                      I   N=           6
           3           3           1           1           1           1
IBond                                      I   N=          18
           2           3           4           1           5           6
           1           0           0           1           0           0
           2           0           0           2           0           0
RBond                                      R   N=          18
  2.00000000E+00  1.00000000E+00  1.00000000E+00  2.00000000E+00  1.00000000E+00
  1.00000000E+00  1.00000000E+00  0.00000000E+00  0.00000000E+00  1.00000000E+00
  0.00000000E+00  0.00000000E+00  1.00000000E+00  0.00000000E+00  0.00000000E+00
  1.00000000E+00  0.00000000E+00  0.00000000E+00
Virial Ratio                               R      0.000000000000000E+00
SCF Energy                                 R     -7.808555440577146E+01
Total Energy                               R     -7.808555440577146E+01
External E-field                           R   N=          35
  0.00000000E+00  0.00000000E+00  0.00000000E+00  0.00000000E+00  0.00000000E+00
  0.00000000E+00  0.00000000E+00  0.00000000E+00  0.00000000E+00  0.00000000E+00
  0.00000000E+00  0.00000000E+00  0.00000000E+00  0.00000000E+00  0.00000000E+00
  0.00000000E+00  0.00000000E+00  0.00000000E+00  0.00000000E+00  0.00000000E+00
  0.00000000E+00  0.00000000E+00  0.00000000E+00  0.00000000E+00  0.00000000E+00
  0.00000000E+00  0.00000000E+00  0.00000000E+00  0.00000000E+00  0.00000000E+00
  0.00000000E+00  0.00000000E+00  0.00000000E+00  0.00000000E+00  0.00000000E+00
IOpCl                                      I                0
IROHF                                      I                3
Alpha Orbital Energies                     R   N=          72
  0.00000000E+00  0.00000000E+00  0.00000000E+00  0.00000000E+00  0.00000000E+00
  0.00000000E+00  0.00000000E+00  0.00000000E+00  0.00000000E+00  0.00000000E+00
  0.00000000E+00  0.00000000E+00  0.00000000E+00  0.00000000E+00  0.00000000E+00
  0.00000000E+00  0.00000000E+00  0.00000000E+00  0.00000000E+00  0.00000000E+00
  0.00000000E+00  0.00000000E+00  0.00000000E+00  0.00000000E+00  0.00000000E+00
  0.00000000E+00  0.00000000E+00  0.00000000E+00  0.00000000E+00  0.00000000E+00
  0.00000000E+00  0.00000000E+00  0.00000000E+00  0.00000000E+00  0.00000000E+00
  0.00000000E+00  0.00000000E+00  0.00000000E+00  0.00000000E+00  0.00000000E+00
  0.00000000E+00  0.00000000E+00  0.00000000E+00  0.00000000E+00  0.00000000E+00
  0.00000000E+00  0.00000000E+00  0.00000000E+00  0.00000000E+00  0.00000000E+00
  0.00000000E+00  0.00000000E+00  0.00000000E+00  0.00000000E+00  0.00000000E+00
  0.00000000E+00  0.00000000E+00  0.00000000E+00  0.00000000E+00  0.00000000E+00
  0.00000000E+00  0.00000000E+00  0.00000000E+00  0.00000000E+00  0.00000000E+00
  0.00000000E+00  0.00000000E+00  0.00000000E+00  0.00000000E+00  0.00000000E+00
  0.00000000E+00  0.00000000E+00
Alpha MO coefficients                      R   N=        5184
  3.98211303E-01  3.29801402E-01  2.08668759E-16 -1.45593136E-14  5.93441364E-06
  3.25618589E-03  2.91445954E-16  1.41324504E-14 -3.12872738E-04 -4.97650077E-04
  7.62831078E-16  9.31070751E-15  3.72850778E-05  5.92672661E-04  1.01126049E-15
  4.32097504E-14 -1.38658318E-05  3.01689491E-04 -2.20452118E-16  5.66815544E-15
 -7.02995701E-05  1.00069737E-16  3.98233394E-01  3.29819702E-01  6.16185681E-16
  3.03236022E-14 -5.95009337E-06  3.25634865E-03 -2.80896206E-16 -2.91270878E-14
  3.12898498E-04 -4.97659367E-04  1.29099840E-15 -5.65666367E-15 -3.72861374E-05
  5.92685321E-04 -3.23728490E-16 -5.05686756E-14  1.38717526E-05  3.01710318E-04
 -1.07704969E-17  1.12080232E-14 -7.03123875E-05  1.02972016E-16  2.88807035E-04
 -2.50557691E-05  9.42899717E-05 -2.31059143E-04  2.12747387E-16  1.39689123E-05
 -4.55815628E-05  2.88807035E-04 -2.50557691E-05  9.42899717E-05 -2.31059143E-04
  3.89589601E-16 -1.39689123E-05 -4.55815628E-05  2.88823175E-04 -2.50578237E-05
  9.42995555E-05 -2.31059825E-04  9.23485079E-17  1.39681488E-05  4.55822519E-05
  2.88823175E-04 -2.50578237E-05  9.42995555E-05 -2.31059825E-04  1.10154827E-16
 -1.39681488E-05  4.55822519E-05  3.98408169E-01  3.30020375E-01 -8.59601733E-17
 -1.45515765E-14  4.17353265E-04  3.00791345E-03  2.44880555E-16  1.59077869E-14
 -7.00320358E-04 -1.33009872E-04  3.56535586E-16 -1.78622016E-14  5.89380151E-05
  3.24610547E-04 -1.79130158E-16 -9.51296556E-14 -1.40309542E-04  4.58706116E-04
  2.24354489E-17  5.58842203E-15 -2.06920879E-04 -1.14733838E-16 -3.98386088E-01
 -3.30002087E-01 -4.63484691E-16 -2.87615933E-14  4.17345814E-04 -3.00773345E-03
  6.18343500E-16  2.66652374E-14 -7.00298586E-04  1.32982286E-04 -8.14431460E-16
  7.16486037E-15  5.89344327E-05 -3.24576625E-04  4.49589621E-16  1.20665060E-13
 -1.40308232E-04 -4.58687915E-04 -1.00278861E-16 -1.03622907E-14  2.06917659E-04
  8.33336930E-17  2.99051044E-04 -1.45841400E-06  1.35139287E-04  4.14050683E-06
  1.23705696E-16 -3.18707240E-05 -2.13732616E-05  2.99051044E-04 -1.45841399E-06
  1.35139287E-04  4.14050671E-06 -3.04549123E-16  3.18707240E-05 -2.13732617E-05
 -2.99034910E-04  1.45810567E-06 -1.35134962E-04 -4.15353468E-06  1.14114734E-16
  3.18711628E-05 -2.13704012E-05 -2.99034910E-04  1.45810568E-06 -1.35134962E-04
 -4.15353449E-06 -1.17922033E-16 -3.18711628E-05 -2.13704012E-05 -8.36197314E-02
 -1.37538856E-01  1.71930185E-16  5.54615016E-14 -5.01265186E-02  3.44866224E-01
  7.87934149E-17  6.13644246E-14 -7.79452632E-02  1.91331955E-01  4.13805873E-16
  2.48310828E-13 -1.51011714E-02 -8.56129860E-03 -2.31206745E-17  1.57216652E-12
  5.32646550E-03  1.81121938E-02  1.08218776E-16  6.39789621E-14 -3.22892005E-03
 -9.30199846E-17 -8.36197515E-02 -1.37538889E-01  9.48934425E-17 -1.35787268E-13
  5.01264512E-02  3.44866306E-01  8.64780461E-16 -1.87407335E-13  7.79451429E-02
  1.91331911E-01  2.43461225E-16 -5.07515953E-13  1.51010731E-02 -8.56159491E-03
  9.85049176E-16 -1.73649539E-12 -5.32653696E-03  1.81121832E-02  1.55937407E-16
  1.00034973E-13 -3.22892690E-03 -4.73956345E-17  5.08198783E-02  6.76561285E-02
 -7.68678100E-03  6.10763172E-03  1.82612552E-16 -1.05609263E-02 -8.82284876E-03
  5.08198783E-02  6.76561285E-02 -7.68678100E-03  6.10763172E-03 -5.89195838E-17
  1.05609263E-02 -8.82284876E-03  5.08199104E-02  6.76561534E-02 -7.68681059E-03
  6.10766652E-03  4.43809941E-17 -1.05609337E-02  8.82284955E-03  5.08199104E-02
  6.76561534E-02 -7.68681060E-03  6.10766652E-03 -1.23817106E-17  1.05609337E-02
  8.82284955E-03 -6.36895727E-02 -1.06016552E-01  2.25717285E-16  4.58004215E-13
  7.06633111E-02  2.69958360E-01  4.11389083E-16  7.09787652E-13  1.14446368E-01
  2.15861960E-01  4.41579208E-16 -6.27274905E-14  4.75950503E-02 -3.22944466E-02
  1.33966416E-15 -4.59417494E-13  4.15727425E-03 -7.08358492E-03  2.73034352E-17
  5.44708062E-14 -1.44187056E-02 -1.21593566E-16  6.36895480E-02  1.06016513E-01
 -6.97736218E-17  7.03047803E-13  7.06633958E-02 -2.69958317E-01 -1.46652498E-16
  1.03119667E-12  1.14446502E-01 -2.15861960E-01 -1.51432877E-16  6.79443380E-13
  4.75951457E-02  3.22945158E-02 -1.02366804E-15  1.30634467E-12  4.15731294E-03
  7.08362038E-03  1.31862516E-16 -1.16829598E-13  1.44187069E-02  2.63755603E-16
  8.79192779E-02  1.25834552E-01  1.33394615E-02  8.53985396E-03 -4.19784573E-17
 -1.51119273E-02 -5.64618557E-03  8.79192779E-02  1.25834552E-01  1.33394615E-02
  8.53985396E-03 -9.03106485E-17  1.51119273E-02 -5.64618557E-03 -8.79192863E-02
 -1.25834536E-01 -1.33393906E-02 -8.53994085E-03 -1.79048956E-16  1.51119292E-02
 -5.64618152E-03 -8.79192863E-02 -1.25834536E-01 -1.33393906E-02 -8.53994085E-03
  2.03087248E-16 -1.51119292E-02 -5.64618152E-03  1.54774495E-13  2.52317347E-13
 -1.83462849E-15  1.40083054E-01 -6.44346584E-13 -5.56198193E-13 -3.23804318E-15
  2.13290097E-01 -9.87288117E-13 -6.97298781E-13 -2.73425030E-15  1.16657144E-01
  1.57436687E-13  3.35326559E-12  7.71986340E-16 -6.13064562E-03  2.63047105E-15
  1.58995502E-13  2.15500574E-16  3.84432964E-03  1.01875682E-13  5.89477307E-17
 -2.04143111E-13 -3.34999554E-13 -2.04498404E-15  1.40083183E-01  5.45062314E-13
  8.15258679E-13 -3.30415528E-15  2.13290300E-01  8.34871014E-13 -3.73836485E-13
 -3.45430778E-15  1.16657163E-01  1.18592275E-12 -4.86543665E-12 -1.15441465E-15
 -6.13062491E-03  1.19871644E-13 -2.62667075E-14 -2.65193855E-16 -3.84435449E-03
 -1.35661129E-13  1.30148035E-16  9.40091889E-02  1.45729754E-01  3.43844750E-02
  1.47074976E-02 -1.47121112E-16 -1.06409331E-02 -1.04342488E-02 -9.40091889E-02
 -1.45729754E-01 -3.43844750E-02 -1.47074976E-02 -7.04657035E-17 -1.06409331E-02
  1.04342488E-02  9.40092705E-02  1.45729892E-01  3.43844725E-02  1.47076444E-02
 -5.26488287E-17 -1.06409424E-02  1.04342562E-02 -9.40092705E-02 -1.45729892E-01
 -3.43844725E-02 -1.47076444E-02  5.64734948E-18 -1.06409424E-02 -1.04342562E-02
  6.03345634E-03  1.01635421E-02  2.93693574E-16  1.51107906E-12  1.82195738E-01
 -3.19029804E-02  3.89963103E-16  2.30877287E-12  2.73179468E-01  2.53804102E-02
  9.11589784E-16  1.67631373E-12  1.43618592E-01 -1.17174392E-02 -2.73938830E-16
  8.89978069E-13 -6.85591421E-03 -2.06267335E-02 -1.99782015E-16  3.22706770E-13
 -1.38553315E-02 -8.62504123E-17  6.03345454E-03  1.01635367E-02  2.17140668E-16
 -8.10129610E-13 -1.82195639E-01 -3.19028892E-02  1.15054965E-16 -1.21152325E-12
 -2.73179319E-01  2.53807383E-02 -9.62743138E-17 -9.68116203E-13 -1.43618434E-01
 -1.17195727E-02  7.66774533E-16 -1.10647095E-12  6.85541132E-03 -2.06267691E-02
 -1.93918603E-16  2.90442779E-13 -1.38553282E-02 -8.89501971E-17  7.49134336E-02
  1.18331247E-01  4.04362015E-02  6.40285870E-03  8.86053002E-17 -1.24945258E-02
  2.24386556E-03  7.49134336E-02  1.18331247E-01  4.04362015E-02  6.40285870E-03
 -5.80859986E-17  1.24945258E-02  2.24386556E-03  7.49133979E-02  1.18331151E-01
  4.04361229E-02  6.40310069E-03  1.16931865E-16 -1.24945155E-02 -2.24386914E-03
  7.49133979E-02  1.18331151E-01  4.04361229E-02  6.40310069E-03  8.47296881E-17
  1.24945155E-02 -2.24386914E-03 -1.09329066E-13 -1.83696491E-13  3.12212991E-16
  1.32605791E-01 -1.08896569E-12  6.74791494E-13  1.28376800E-18  2.04241031E-01
 -1.64863891E-12  9.82077125E-13  8.16075552E-16  1.70601728E-01  3.35016282E-13
  6.22592088E-12  1.62247533E-16  2.65137073E-02  4.55064838E-14  1.58796843E-13
 -7.85485112E-17  4.00203604E-02  1.98089126E-13  2.82800457E-16 -5.83478262E-14
 -9.90703088E-14  6.84021408E-16 -1.32605717E-01  1.08666534E-12  4.11781223E-13
  1.01109056E-15 -2.04240932E-01  1.65825630E-12  3.06072470E-12  1.64002884E-15
 -1.70601517E-01  4.79716721E-13  2.03495149E-12  1.49886889E-15 -2.65133002E-02
 -2.00678962E-12  2.10115403E-13  1.37555330E-17  4.00203721E-02  2.59436204E-13
 -1.32286738E-16  1.10965521E-01  1.78969701E-01  6.80592289E-02 -3.85617849E-03
  2.78305603E-17 -6.44433836E-03 -9.13690724E-03 -1.10965521E-01 -1.78969701E-01
 -6.80592289E-02  3.85617849E-03  1.35790891E-16 -6.44433836E-03  9.13690724E-03
 -1.10965458E-01 -1.78969603E-01 -6.80592009E-02  3.85514573E-03 -1.19958996E-16
  6.44432717E-03 -9.13689470E-03  1.10965458E-01  1.78969603E-01  6.80592009E-02
 -3.85514574E-03 -1.26551228E-16  6.44432717E-03  9.13689470E-03  2.12898197E-17
 -1.22930573E-17  1.69507288E-01  7.94667474E-16  7.57138778E-16  8.65182675E-16
  2.83627327E-01  4.22249050E-15 -4.96223012E-15 -2.21870030E-16  2.48541418E-01
 -1.89153690E-14 -2.39364043E-15  9.81183833E-13  2.59615869E-02 -1.50383102E-13
 -2.84242061E-13  1.94132819E-15 -2.68668311E-02  4.17230544E-16  1.27309157E-15
 -2.68274538E-14  1.38763820E-16  3.20307061E-16  1.69507322E-01  2.21647868E-15
  9.75518617E-17 -1.13272003E-15  2.83627399E-01  3.21492695E-15 -4.67365717E-15
 -5.97234460E-15  2.48541436E-01  2.59784098E-14  1.95819810E-15 -1.03198143E-12
  2.59615091E-02  2.19312928E-13 -2.73758853E-13 -1.94864677E-15  2.68668082E-02
 -9.02754182E-16 -3.78975135E-16 -1.39692645E-13  1.39278003E-16  7.62654248E-15
  6.94180749E-15  1.21358626E-13  1.28172959E-02 -9.78077771E-16 -5.66430944E-16
 -1.07706581E-15  4.18651805E-15 -4.21997369E-14 -6.95136030E-14  1.28172959E-02
  1.79929670E-15 -7.97444954E-16  1.25082082E-15 -1.07465283E-15 -2.97723446E-14
 -1.80485775E-13  1.28173043E-02  1.01007238E-15 -1.16589676E-15 -6.74971543E-16
 -6.79984961E-15  9.22623676E-14  1.60038590E-13  1.28173043E-02  7.65692471E-16
  8.83148057E-16  2.59746544E-17  1.22536866E-16  2.35921721E-01 -1.54759050E-16
  3.00723081E-16 -4.79954329E-16  4.35631221E-01  4.73451571E-16 -2.22283142E-17
  1.16866481E-14  3.57045408E-01  2.94816906E-14 -1.30154821E-14 -4.09756330E-13
 -2.13959770E-02  1.41307887E-13  1.11896424E-13  8.12344547E-16  4.01813565E-03
  1.16767909E-15 -1.85255943E-17 -3.01255326E-14 -2.42208130E-16 -4.94409323E-16
 -2.35921911E-01 -2.27181937E-16 -3.17533467E-16  2.76310402E-15 -4.35631488E-01
 -3.75977398E-15 -6.30140148E-16 -1.22817157E-14 -3.57045070E-01 -3.07026067E-14
 -1.42369652E-14  4.30035423E-13  2.13961625E-02 -1.49384677E-13  1.15182977E-13
 -1.78236980E-15  4.01815049E-03  3.16148926E-15  1.40617666E-15  4.46434046E-13
  1.56823495E-16 -5.49678569E-15 -2.32864278E-14 -1.08238933E-13  9.62437243E-03
  6.36575357E-16  8.32344990E-16 -7.41771434E-17  3.94500712E-15  4.85673010E-14
  8.70357160E-14  9.62437243E-03  1.42496195E-15 -1.09991885E-15 -3.88908184E-16
  7.65219501E-15  2.12547365E-14  1.11600511E-13 -9.62438266E-03 -1.50675978E-15
  1.72928078E-15  5.20928675E-17 -6.11816856E-15 -5.97920328E-14 -1.03456594E-13
 -9.62438266E-03 -2.38782365E-15 -1.49341731E-15  2.06136674E-02  4.33099482E-02
 -2.88319418E-14  1.24194672E-13 -4.90748343E-02 -1.17229769E-01 -4.36667175E-14
  1.91058515E-13 -8.26732365E-02 -4.78761664E-01  8.96020981E-14  9.88602006E-14
 -1.60731217E-01  1.02979985E+00 -6.01844150E-14 -4.44322079E-13  4.39611887E-01
  1.99925248E-04  6.26098654E-15  3.24754588E-14  2.41616755E-04 -9.97455064E-16
  2.02128068E-02  4.37665173E-02 -2.66044207E-14 -1.35597202E-13  4.92024288E-02
 -1.17434590E-01 -4.31469197E-14 -2.08782273E-13  8.18243207E-02 -4.78833950E-01
  9.65162538E-14 -9.02578788E-14  1.60614463E-01  1.02927149E+00 -6.37679826E-14
  4.40024332E-13 -4.39676657E-01 -1.26872347E-04  7.94110761E-15  2.82543796E-14
  8.11006671E-05 -6.18887830E-16 -1.65960430E-02  7.07935253E-02 -1.86015464E-01
  2.99557145E-05  5.17220102E-15 -3.85893779E-04 -1.71971834E-04 -1.65960430E-02
  7.07935253E-02 -1.86015464E-01  2.99557138E-05  6.26992960E-15  3.85893779E-04
 -1.71971834E-04 -1.65783415E-02  7.04542023E-02 -1.85898827E-01  5.52902221E-05
  4.31844028E-15 -2.12142931E-04  1.25224196E-04 -1.65783415E-02  7.04542023E-02
 -1.85898827E-01  5.52902227E-05  4.69332473E-15  2.12142931E-04  1.25224196E-04
 -2.66996646E-02 -4.54268981E-02  5.10017744E-14 -6.67795725E-14  2.41614931E-02
  1.43592410E-01  1.03218734E-13 -1.79243900E-14  2.98191575E-02  3.87147404E-01
 -1.58831674E-13 -1.05895272E-14  6.21545556E-02  8.04424568E+00  5.68954096E-14
 -5.71478618E-13 -2.88788024E+00  3.69815433E-07 -1.10090413E-13  3.64517176E-14
  2.25776285E-05  4.28149400E-15  2.66996533E-02  4.54262932E-02  3.63525408E-14
 -9.50463388E-14  2.41750464E-02 -1.43581110E-01  1.12938953E-13 -1.39405851E-13
  2.98167920E-02 -3.87177472E-01 -2.39203853E-13 -8.09643102E-14  6.21572450E-02
 -8.04416458E+00  8.74079177E-14  4.15687521E-13 -2.88789918E+00 -1.21200600E-05
  8.16789636E-14 -7.93338256E-15 -1.64954512E-05  5.37634080E-15  6.15307947E-03
 -4.97857927E-02  1.55592952E-02 -4.16706073E-05 -7.14365999E-15  1.52728161E-05
  1.40693776E-06  6.15307947E-03 -4.97857927E-02  1.55592952E-02 -4.16706082E-05
 -2.35774501E-14 -1.52728161E-05  1.40693770E-06 -6.15361512E-03  4.98004703E-02
 -1.55713280E-02  1.07071986E-05  2.47741457E-14 -1.76218486E-05  5.23392679E-06
 -6.15361512E-03  4.98004703E-02 -1.55713280E-02  1.07071991E-05  2.19586389E-14
  1.76218486E-05  5.23392682E-06 -3.63074219E-14 -5.95208356E-14  5.30612873E-14
 -7.88871183E-02  2.43004583E-14  1.26166110E-13  1.36968893E-13 -1.39272982E-01
  7.73658951E-14  4.74896035E-13 -2.17883532E-13 -2.50548208E-01 -2.15296940E-13
 -4.22256766E-12  2.21632835E-15  6.70076590E-01  1.14249664E-12  1.81671944E-15
 -2.75991038E-13 -8.74213529E-06 -2.34046507E-14 -5.59656056E-17  5.10811087E-14
  7.10709237E-14  4.76890032E-14 -7.88890430E-02  5.38514296E-14 -1.70342884E-13
  9.50482049E-14 -1.39272001E-01  1.18611070E-13 -5.54042460E-13 -2.95501600E-13
 -2.50516598E-01 -1.65001910E-13  4.13939317E-12  5.66111445E-14  6.70211787E-01
  1.16144416E-12  4.55981779E-15  2.17453131E-13  7.60403195E-06  2.49064528E-14
  5.20958753E-17 -6.07893436E-03  9.74962484E-02 -1.17313121E-01 -3.37717132E-05
  3.93712792E-14  2.63247162E-05  2.63114522E-05  6.07893436E-03 -9.74962484E-02
  1.17313121E-01  3.37717131E-05  4.03551722E-14  2.63247162E-05 -2.63114521E-05
 -6.07726685E-03  9.74901754E-02 -1.17354902E-01 -1.22185669E-04  1.18810302E-13
  2.49290486E-05 -2.46795546E-05  6.07726685E-03 -9.74901754E-02  1.17354902E-01
  1.22185669E-04  1.18070696E-13  2.49290486E-05  2.46795546E-05 -1.12386515E-14
 -2.00334183E-14 -1.95503285E-01 -3.48555741E-14 -2.30574516E-14  1.30687679E-13
 -3.90900255E-01 -8.08631913E-14 -1.69300402E-14 -6.90535071E-14  4.74815858E-01
 -1.17520725E-13 -1.22795759E-14  2.55805255E-12  1.00201444E-01 -5.69296687E-14
 -9.55490908E-13  3.49073607E-14  2.62763047E-01  5.71373682E-15 -8.54248891E-14
 -3.33402584E-14  1.19563562E-15  1.77411630E-15 -1.95501639E-01 -3.72081455E-14
  3.03184023E-14  7.13774782E-14 -3.90898764E-01 -8.92801920E-14  3.87352671E-14
 -3.58306123E-13  4.74811939E-01 -4.24477230E-14 -2.15218806E-14 -3.02517845E-12
  1.00201053E-01  6.14954279E-13 -8.57797512E-13  4.36161196E-14 -2.62762287E-01