 Entering Gaussian System, Link 0=g09
 Initial command:
 /mnt/lustre_fs/users/mjmcc/apps/g09/l1.exe "./Gau-22440.inp" -scrdir="./"
 Entering Link 1 = /mnt/lustre_fs/users/mjmcc/apps/g09/l1.exe PID=     22441.
  
 Copyright (c) 1988,1990,1992,1993,1995,1998,2003,2009,2013,
            Gaussian, Inc.  All Rights Reserved.
  
 This is part of the Gaussian(R) 09 program.  It is based on
 the Gaussian(R) 03 system (copyright 2003, Gaussian, Inc.),
 the Gaussian(R) 98 system (copyright 1998, Gaussian, Inc.),
 the Gaussian(R) 94 system (copyright 1995, Gaussian, Inc.),
 the Gaussian 92(TM) system (copyright 1992, Gaussian, Inc.),
 the Gaussian 90(TM) system (copyright 1990, Gaussian, Inc.),
 the Gaussian 88(TM) system (copyright 1988, Gaussian, Inc.),
 the Gaussian 86(TM) system (copyright 1986, Carnegie Mellon
 University), and the Gaussian 82(TM) system (copyright 1983,
 Carnegie Mellon University). Gaussian is a federally registered
 trademark of Gaussian, Inc.
  
 This software contains proprietary and confidential information,
 including trade secrets, belonging to Gaussian, Inc.
  
 This software is provided under written license and may be
 used, copied, transmitted, or stored only in accord with that
 written license.
  
 The following legend is applicable only to US Government
 contracts under FAR:
  
                    RESTRICTED RIGHTS LEGEND
  
 Use, reproduction and disclosure by the US Government is
 subject to restrictions as set forth in subparagraphs (a)
 and (c) of the Commercial Computer Software - Restricted
 Rights clause in FAR 52.227-19.
  
 Gaussian, Inc.
 340 Quinnipiac St., Bldg. 40, Wallingford CT 06492
  
  
 ---------------------------------------------------------------
 Warning -- This program may not be used in any manner that
 competes with the business of Gaussian, Inc. or will provide
 assistance to any competitor of Gaussian, Inc.  The licensee
 of this program is prohibited from giving any competitor of
 Gaussian, Inc. access to this program.  By using this program,
 the user acknowledges that Gaussian, Inc. is engaged in the
 business of creating and licensing software in the field of
 computational chemistry and represents and warrants to the
 licensee that it is not a competitor of Gaussian, Inc. and that
 it will not use this program in any manner prohibited above.
 ---------------------------------------------------------------
  

 Cite this work as:
 Gaussian 09, Revision D.01,
 M. J. Frisch, G. W. Trucks, H. B. Schlegel, G. E. Scuseria, 
 M. A. Robb, J. R. Cheeseman, G. Scalmani, V. Barone, B. Mennucci, 
 G. A. Petersson, H. Nakatsuji, M. Caricato, X. Li, H. P. Hratchian, 
 A. F. Izmaylov, J. Bloino, G. Zheng, J. L. Sonnenberg, M. Hada, 
 M. Ehara, K. Toyota, R. Fukuda, J. Hasegawa, M. Ishida, T. Nakajima, 
 Y. Honda, O. Kitao, H. Nakai, T. Vreven, J. A. Montgomery, Jr., 
 J. E. Peralta, F. Ogliaro, M. Bearpark, J. J. Heyd, E. Brothers, 
 K. N. Kudin, V. N. Staroverov, T. Keith, R. Kobayashi, J. Normand, 
 K. Raghavachari, A. Rendell, J. C. Burant, S. S. Iyengar, J. Tomasi, 
 M. Cossi, N. Rega, J. M. Millam, M. Klene, J. E. Knox, J. B. Cross, 
 V. Bakken, C. Adamo, J. Jaramillo, R. Gomperts, R. E. Stratmann, 
 O. Yazyev, A. J. Austin, R. Cammi, C. Pomelli, J. W. Ochterski, 
 R. L. Martin, K. Morokuma, V. G. Zakrzewski, G. A. Voth, 
 P. Salvador, J. J. Dannenberg, S. Dapprich, A. D. Daniels, 
 O. Farkas, J. B. Foresman, J. V. Ortiz, J. Cioslowski, 
 and D. J. Fox, Gaussian, Inc., Wallingford CT, 2013.
 
 ******************************************
 Gaussian 09:  EM64L-G09RevD.01 24-Apr-2013
                 9-Apr-2017 
 ******************************************
 %nprocshared=20
 Will use up to   20 processors via shared memory.
 %mem=20GB
 %chk=ethylene_casscf_2_6.chk
 -------------------------------------------------------------------
 # casscf(2,6)/6-311++g** guess=(read) Pop=NaturalOrbital geom=check
 -------------------------------------------------------------------
 1/29=2,38=1/1;
 2/12=2,40=1/2;
 3/5=4,6=6,7=1111,14=-4,16=1,25=1,32=1,116=101/1,2,3;
 4/5=1,17=2,18=6/1,5;
 5/5=2,17=1000000,38=6/10;
 6/7=2,8=2,9=2,10=2,22=-1,28=1,31=1/1;
 99/5=1,9=1/99;
 -------------------
 Title Card Required
 -------------------
 Structure from the checkpoint file:  "ethylene_casscf_2_6.chk"
 Charge =  0 Multiplicity = 1
 Redundant internal coordinates found in file.
 C,0,0.,0.,-0.0164717667
 C,0,0.,0.,1.3164717667
 H,0,0.9194399167,0.,-0.5897915263
 H,0,-0.9194399167,0.,-0.5897915263
 H,0,0.9194399167,0.,1.8897915263
 H,0,-0.9194399167,0.,1.8897915263
 Recover connectivity data from disk.
                          Input orientation:                          
 ---------------------------------------------------------------------
 Center     Atomic      Atomic             Coordinates (Angstroms)
 Number     Number       Type             X           Y           Z
 ---------------------------------------------------------------------
      1          6           0        0.000000    0.000000   -0.016472
      2          6           0        0.000000    0.000000    1.316472
      3          1           0        0.919440    0.000000   -0.589792
      4          1           0       -0.919440    0.000000   -0.589792
      5          1           0        0.919440    0.000000    1.889792
      6          1           0       -0.919440    0.000000    1.889792
 ---------------------------------------------------------------------
                    Distance matrix (angstroms):
                    1          2          3          4          5
     1  C    0.000000
     2  C    1.332944   0.000000
     3  H    1.083543   2.116414   0.000000
     4  H    1.083543   2.116414   1.838880   0.000000
     5  H    2.116414   1.083543   2.479583   3.087039   0.000000
     6  H    2.116414   1.083543   3.087039   2.479583   1.838880
                    6
     6  H    0.000000
 Stoichiometry    C2H4
 Framework group  D2H[C2"(C.C),SG(H4)]
 Deg. of freedom     3
 Full point group                 D2H     NOp   8
 Largest Abelian subgroup         D2H     NOp   8
 Largest concise Abelian subgroup D2      NOp   4
                         Standard orientation:                         
 ---------------------------------------------------------------------
 Center     Atomic      Atomic             Coordinates (Angstroms)
 Number     Number       Type             X           Y           Z
 ---------------------------------------------------------------------
      1          6           0        0.000000    0.000000    0.666472
      2          6           0        0.000000    0.000000   -0.666472
      3          1           0        0.000000    0.919440    1.239792
      4          1           0        0.000000   -0.919440    1.239792
      5          1           0        0.000000    0.919440   -1.239792
      6          1           0        0.000000   -0.919440   -1.239792
 ---------------------------------------------------------------------
 Rotational constants (GHZ):    148.2946054     29.9805890     24.9387450
 Standard basis: 6-311++G(d,p) (5D, 7F)
 There are    18 symmetry adapted cartesian basis functions of AG  symmetry.
 There are     2 symmetry adapted cartesian basis functions of B1G symmetry.
 There are     6 symmetry adapted cartesian basis functions of B2G symmetry.
 There are    11 symmetry adapted cartesian basis functions of B3G symmetry.
 There are     2 symmetry adapted cartesian basis functions of AU  symmetry.
 There are    18 symmetry adapted cartesian basis functions of B1U symmetry.
 There are    11 symmetry adapted cartesian basis functions of B2U symmetry.
 There are     6 symmetry adapted cartesian basis functions of B3U symmetry.
 There are    17 symmetry adapted basis functions of AG  symmetry.
 There are     2 symmetry adapted basis functions of B1G symmetry.
 There are     6 symmetry adapted basis functions of B2G symmetry.
 There are    11 symmetry adapted basis functions of B3G symmetry.
 There are     2 symmetry adapted basis functions of AU  symmetry.
 There are    17 symmetry adapted basis functions of B1U symmetry.
 There are    11 symmetry adapted basis functions of B2U symmetry.
 There are     6 symmetry adapted basis functions of B3U symmetry.
    72 basis functions,   108 primitive gaussians,    74 cartesian basis functions
     8 alpha electrons        8 beta electrons
       nuclear repulsion energy        33.3590490949 Hartrees.
 NAtoms=    6 NActive=    6 NUniq=    2 SFac= 4.00D+00 NAtFMM=   60 NAOKFM=F Big=F
 Integral buffers will be    131072 words long.
 Regular integral format.
 Two-electron integral symmetry is turned off.
 One-electron integrals computed using PRISM.
 The smallest eigenvalue of the overlap matrix is  1.463D-04
 NBasis=    72 RedAO= F EigKep=  0.00D+00  NBF=    17     2     6    11     2    17    11     6
 NBsUse=    72 1.00D-04 EigRej=  0.00D+00 NBFU=    17     2     6    11     2    17    11     6
 Initial guess from the checkpoint file:  "ethylene_casscf_2_6.chk"
 B after Tr=     0.000000    0.000000    0.000000
         Rot=    1.000000    0.000000    0.000000    0.000000 Ang=   0.00 deg.
 Initial guess orbital symmetries:
       Occupied  (AG) (B1U) (AG) (B1U) (B2U) (AG) (B3G) (B3U)
       Virtual   (B2G) (AG) (B1U) (B2U) (B3U) (B3G) (AG) (B2G)
                 (AG) (B1U) (B2U) (B1U) (B3G) (B1U) (B2U) (AG)
                 (AG) (B1U) (B3U) (B2G) (B2U) (B3G) (B1U) (AG)
                 (B3G) (B1U) (AG) (B1U) (B2U) (B3G) (B3U) (B2G)
                 (B1U) (B2U) (AG) (B3G) (AG) (B1U) (B3G) (?A) (B3G)
                 (B3G) (?B) (?A) (B3G) (B3G) (?B) (?A) (B3G) (B3G)
                 (?A) (B3G) (B3G) (?B) (?A) (B3G) (?C) (?A) (?B)
                 (?A) (?A) (?C) (?C) (?C)
          Truncation Level=               99999
          a=  1          b=  0          c=  5
          a=N/2 - s   b=2s   c=n- (a+b)
          no. active orbitals (n)  6
          no. active ELECTRONS (N)=  2
                                                  IRREPS TO BE RETAINED = 1 2 3 4 5 6 7 8
                                                  GROUP IRREP. MULT. TABLE
                                                      1    2    3    4    5    6    7    8
                                                      2    1    4    3    6    5    8    7
                                                      3    4    1    2    7    8    5    6
                                                      4    3    2    1    8    7    6    5
                                                      5    6    7    8    1    2    3    4
                                                      6    5    8    7    2    1    4    3
                                                      7    8    5    6    3    4    1    2
                                                      8    7    6    5    4    3    2    1
                                                  IRREP. LABELS FOR ORBITALS
                                                   8 3 1 6 7 8
          BOTTOM WEIGHT=  2     TOP WEIGHT= 12
          Configuration         1 Symmetry 1 100000
          Configuration         2 Symmetry 6 ab0000
          Configuration         3 Symmetry 1 010000
          Configuration         4 Symmetry 8 a0b000
          Configuration         5 Symmetry 3 0ab000
          Configuration         6 Symmetry 3 a00b00
          Configuration         7 Symmetry 1 001000
          Configuration         8 Symmetry 8 0a0b00
          Configuration         9 Symmetry 2 a000b0
          Configuration        10 Symmetry 6 00ab00
          Configuration        11 Symmetry 5 0a00b0
          Configuration        12 Symmetry 1 a0000b
          Configuration        13 Symmetry 1 000100
          Configuration        14 Symmetry 7 00a0b0
          Configuration        15 Symmetry 6 0a000b
          Configuration        16 Symmetry 4 000ab0
          Configuration        17 Symmetry 8 00a00b
          Configuration        18 Symmetry 1 000010
          Configuration        19 Symmetry 3 000a0b
          Configuration        20 Symmetry 2 0000ab
          Configuration        21 Symmetry 1 000001
          NO OF BASIS FUNCTIONS =        21 NO TO BE DELETED =    0
 CI Matrix Elements calculated here
          NO. OF CONFIGURATIONS IN REFERENCE SPACE =    1
                                   SECONDARY SPACE =   21
                                   TERTIARY SPACE =   21
          NO. OF ORBITALS =    6
          NO. OF ELECTRONS =    2
          NO. OF WEIGHTS =   11
          REFERENCE STATE CONFIGURATIONS ARE:     0
          NO. OF CORE ORBITALS =    0
          OPTION:  NON-DIAGONAL HOLE LINE INTERACTIONS INCLUDED
 Len28=       17333 LenMCI=        1728.
 Enter MCSCF program.
 NO. OF ORBITALS = 72     NO. OF CORE-ORBITALS =  7
 NO. OF VALENCE-ORBITALS =  6      NO. OF VIRTUAL-ORBITALS = 59
 USED ACCURACY IN CHECKING CONVERGENCE =  1.00D-08
  Memory needed for Incore Integrals:                 5192628
  Integrals KEPT IN MEMORY
 IBUJAK length=                  122100
 Integral file not found: evaluate integrals 
 FoFCou: FMM=F IPFlag=           0 FMFlag=           0 FMFlg1=           0
         NFxFlg=           0 DoJE=F BraDBF=F KetDBF=F FulRan=T
         wScrn=  0.000000 ICntrl=     600 IOpCl=  0 I1Cent=           0 NGrid=           0
         NMat0=    1 NMatS0=      1 NMatT0=    0 NMatD0=    1 NMtDS0=    0 NMtDT0=    0
 Symmetry not used in FoFCou.
 Defining IBUGAM
 2ND ORD PT ENERGY     CV   -0.000062   CU   -0.029587   UV   -0.019844
 TOTAL                     -78.078697
 WARNING! : large rotation  I  J  =                       27
                       13
 Step scaled by    0.6185392983498247     
 ITN=  1 MaxIt= 64 E=    -78.0292041513 DE=-7.80D+01 Acc= 1.00D-08 Lan=  0
 ITN=  2 MaxIt= 64 E=    -78.0606437696 DE=-3.14D-02 Acc= 1.00D-08 Lan=  0
 ITN=  3 MaxIt= 64 E=    -78.0769302969 DE=-1.63D-02 Acc= 1.00D-08 Lan=  0
 ITN=  4 MaxIt= 64 E=    -78.0817478958 DE=-4.82D-03 Acc= 1.00D-08 Lan=  0
 ITN=  5 MaxIt= 64 E=    -78.0837035421 DE=-1.96D-03 Acc= 1.00D-08 Lan=  0
 ITN=  6 MaxIt= 64 E=    -78.0850376809 DE=-1.33D-03 Acc= 1.00D-08 Lan=  0
 ITN=  7 MaxIt= 64 E=    -78.0853939214 DE=-3.56D-04 Acc= 1.00D-08 Lan=  0
 ITN=  8 MaxIt= 64 E=    -78.0855204207 DE=-1.26D-04 Acc= 1.00D-08 Lan=  0
 ITN=  9 MaxIt= 64 E=    -78.0855443976 DE=-2.40D-05 Acc= 1.00D-08 Lan=  0
 ITN= 10 MaxIt= 64 E=    -78.0855526791 DE=-8.28D-06 Acc= 1.00D-08 Lan=  0
 ITN= 11 MaxIt= 64 E=    -78.0855540650 DE=-1.39D-06 Acc= 1.00D-08 Lan=  0
 ITN= 12 MaxIt= 64 E=    -78.0855543322 DE=-2.67D-07 Acc= 1.00D-08 Lan=  0
 ITN= 13 MaxIt= 64 E=    -78.0855543870 DE=-5.48D-08 Acc= 1.00D-08 Lan=  0
 ITN= 14 MaxIt= 64 E=    -78.0855544009 DE=-1.39D-08 Acc= 1.00D-08 Lan=  0
 ITN= 15 MaxIt= 64 E=    -78.0855544047 DE=-3.82D-09 Acc= 1.00D-08 Lan=  0
 ... Do an extra-iteration for final printing.
 Final one electron symbolic density matrix:
                1             2             3             4             5 
      1  0.191361D+01
      2  0.157731D-06  0.831894D-01
      3  0.227828D-15  0.124017D-15  0.285962D-04
      4  0.283772D-14  0.458085D-16  0.364857D-08  0.427665D-05
      5 -0.633966D-14 -0.531132D-16  0.115403D-15  0.320369D-16  0.429373D-05
      6 -0.758561D-05 -0.325720D-07  0.160436D-16  0.457488D-15 -0.103576D-14
                6 
      6  0.316031D-02
 MCSCF converged.

 **********************************************************************

            Population analysis using the SCF density.

 **********************************************************************

 Orbital symmetries:
       Occupied  (AG) (B1U) (AG) (B1U) (B2U) (AG) (B3G) (B3U)
       Virtual   (B2G) (AG) (B1U) (B2U) (B3U) (B3G) (AG) (B2G)
                 (AG) (B1U) (B3G) (B1U) (B2U) (AG) (B3G) (AG) (AG)
                 (B1U) (B3U) (B2G) (B2U) (B3G) (AG) (B1U) (B3G)
                 (B1U) (AG) (B1U) (B2U) (B3G) (B3U) (B2G) (AG)
                 (B2U) (B1U) (B3G) (AG) (B1U) (B1U) (B2U) (B1U)
                 (AG) (B2G) (B3G) (B1U) (AG) (B3U) (B2U) (B1U)
                 (B1U) (B2U) (B1U) (AG) (B2G) (B2U) (AG) (B1G)
                 (B3G) (B3U) (B3G) (B2U) (AU) (AU) (B1G)
 The electronic state is 1-AG.
     Natural Orbital Coefficients:
                           1         2         3         4         5
     Eigenvalues --     2.00000   2.00000   2.00000   2.00000   2.00000
   1 1   C  1S         -0.12696   0.08560   0.03992   0.30608  -0.22897
   2        2S         -0.16271   0.06344  -0.01606   0.29054  -0.17989
   3        2PX         0.00000   0.00000   0.00000   0.00000   0.00000
   4        2PY        -0.07678   0.16174   0.01471  -0.07000   0.00251
   5        2PZ        -0.01100  -0.00987   0.05344   0.00363   0.00208
   6        3S          0.28910   0.03736   0.24986  -0.18595  -0.05109
   7        3PX         0.00000   0.00000   0.00000   0.00000   0.00000
   8        3PY        -0.11773   0.24727   0.02204  -0.10787   0.00245
   9        3PZ        -0.01909  -0.01802   0.08739   0.00246   0.00350
  10        4S          0.16693   0.00862   0.19370  -0.12630  -0.02917
  11        4PX         0.00000   0.00000   0.00000   0.00000   0.00000
  12        4PY        -0.08496   0.16079   0.00314  -0.09156  -0.03336
  13        4PZ         0.01318   0.00235   0.03630   0.00078  -0.00121
  14        5S         -0.00885   0.00429  -0.02769   0.01392   0.00167
  15        5PX         0.00000   0.00000   0.00000   0.00000   0.00000
  16        5PY        -0.00793   0.00694  -0.00554  -0.01480  -0.01915
  17        5PZ         0.00324  -0.00031   0.00403  -0.00364  -0.00066
  18        6D 0        0.01214   0.00500  -0.00465  -0.00332  -0.00200
  19        6D+1        0.00000   0.00000   0.00000   0.00000   0.00000
  20        6D-1       -0.01482   0.02022  -0.00510  -0.02203  -0.02137
  21        6D+2       -0.00507   0.00083  -0.01218   0.00487   0.00099
  22        6D-2        0.00000   0.00000   0.00000   0.00000   0.00000
  23 2   C  1S         -0.05588   0.06040   0.26145   0.27781  -0.18819
  24        2S         -0.10732   0.01434   0.25921   0.22427  -0.14873
  25        2PX         0.00000   0.00000   0.00000   0.00000   0.00000
  26        2PY         0.01587   0.04668   0.05485   0.07663   0.15877
  27        2PZ         0.00629  -0.02760   0.06819  -0.06050  -0.00559
  28        3S          0.30736   0.18053  -0.21444   0.03138  -0.03750
  29        3PX         0.00000   0.00000   0.00000   0.00000   0.00000
  30        3PY         0.02497   0.07006   0.08387   0.11796   0.24312
  31        3PZ         0.01172  -0.04263   0.11000  -0.09448  -0.00905
  32        4S          0.18105   0.12304  -0.17826   0.04733  -0.01858
  33        4PX         0.00000   0.00000   0.00000   0.00000   0.00000
  34        4PY         0.03423   0.01277   0.05479   0.09708   0.16767
  35        4PZ        -0.01631  -0.02758   0.04569  -0.03907  -0.00114
  36        5S         -0.01091  -0.01282   0.02804  -0.01204   0.00012
  37        5PX         0.00000   0.00000   0.00000   0.00000   0.00000
  38        5PY         0.01060  -0.01606   0.00249   0.01451   0.01209
  39        5PZ        -0.00349  -0.00189   0.00317   0.00030   0.00047
  40        6D 0        0.01176   0.00126   0.00768  -0.00899  -0.00230
  41        6D+1        0.00000   0.00000   0.00000   0.00000   0.00000
  42        6D-1       -0.01314   0.01450  -0.00701  -0.02222  -0.02579
  43        6D+2       -0.00605  -0.00681   0.01261  -0.00674   0.00026
  44        6D-2        0.00000   0.00000   0.00000   0.00000   0.00000
  45 3   H  1S         -0.00259   0.12180   0.08254  -0.09682  -0.02091
  46        2S         -0.01542   0.19116   0.11722  -0.14734  -0.03461
  47        3S         -0.03059   0.05468   0.00826  -0.03576  -0.02027
  48        4S          0.00453   0.00983   0.01160  -0.00172   0.00981
  49        5PX         0.00000   0.00000   0.00000   0.00000   0.00000
  50        5PY        -0.00671  -0.01188  -0.01480   0.01028  -0.00048
  51        5PZ        -0.00170  -0.01281  -0.00655   0.00924   0.00061
  52 4   H  1S          0.11583  -0.11435   0.06946   0.02143   0.00161
  53        2S          0.17299  -0.18095   0.09903   0.04366   0.00849
  54        3S          0.03192  -0.05553   0.01179   0.03787   0.02034
  55        4S          0.00823  -0.00871   0.00313  -0.00668  -0.01167
  56        5PX         0.00000   0.00000   0.00000   0.00000   0.00000
  57        5PY         0.01584  -0.00954   0.01147  -0.00366  -0.00417
  58        5PZ        -0.01263   0.01064  -0.00413  -0.00037   0.00186
  59 5   H  1S          0.08076   0.07213  -0.03526   0.09661   0.11420
  60        2S          0.11786   0.10257  -0.04541   0.15177   0.18246
  61        3S          0.01786   0.00270   0.00592   0.05023   0.06060
  62        4S          0.00239   0.01770  -0.00428   0.00089   0.00569
  63        5PX         0.00000   0.00000   0.00000   0.00000   0.00000
  64        5PY        -0.01221  -0.01430   0.00928  -0.00900  -0.00882
  65        5PZ         0.00846   0.00787  -0.00041   0.00540   0.01044
  66 6   H  1S          0.04411   0.02854  -0.11554  -0.03053  -0.12479
  67        2S          0.05619   0.04104  -0.17196  -0.05301  -0.19621
  68        3S         -0.01474   0.01060  -0.03176  -0.02665  -0.05919
  69        4S          0.01148  -0.00753  -0.01042   0.00446  -0.00670
  70        5PX         0.00000   0.00000   0.00000   0.00000   0.00000
  71        5PY         0.01233   0.00406  -0.01651   0.00138  -0.01102
  72        5PZ         0.00662   0.00028  -0.00836  -0.00519  -0.01234
                           6         7         8         9        10
     Eigenvalues --     2.00000   2.00000   1.91361   0.08319   0.00316
   1 1   C  1S          0.37681   0.12350   0.00000   0.00000   0.00000
   2        2S          0.29722   0.10987   0.00000   0.00000   0.00000
   3        2PX         0.00000   0.00000   0.16951   0.23592  -0.19550
   4        2PY        -0.00551  -0.00082   0.00000   0.00000   0.00000
   5        2PZ        -0.06603   0.18234   0.00000   0.00000   0.00000
   6        3S          0.08032  -0.04246   0.00000   0.00000   0.00000
   7        3PX         0.00000   0.00000   0.28363   0.43563  -0.39090
   8        3PY        -0.00866  -0.00120   0.00000   0.00000   0.00000
   9        3PZ        -0.10021   0.27462   0.00000   0.00000   0.00000
  10        4S          0.03143   0.02440   0.00000   0.00000   0.00000
  11        4PX         0.00000   0.00000   0.24854   0.35705   0.47482
  12        4PY        -0.01160   0.00066   0.00000   0.00000   0.00000
  13        4PZ        -0.04903   0.13862   0.00000   0.00000   0.00000
  14        5S          0.00137  -0.01385   0.00000   0.00000   0.00000
  15        5PX         0.00000   0.00000   0.02596  -0.02140   0.10020
  16        5PY        -0.00352   0.00076   0.00000   0.00000   0.00000
  17        5PZ         0.00325  -0.00645   0.00000   0.00000   0.00000
  18        6D 0        0.00989  -0.02230   0.00000   0.00000   0.00000
  19        6D+1        0.00000   0.00000  -0.02687   0.00402   0.26276
  20        6D-1       -0.00439   0.00079   0.00000   0.00000   0.00000
  21        6D+2        0.00331  -0.01414   0.00000   0.00000   0.00000
  22        6D-2        0.00000   0.00000   0.00000   0.00000   0.00000
  23 2   C  1S         -0.34307  -0.15155   0.00000   0.00000   0.00000
  24        2S         -0.29347  -0.10241   0.00000   0.00000   0.00000
  25        2PX         0.00000   0.00000   0.16951  -0.23592  -0.19550
  26        2PY         0.02537  -0.00674   0.00000   0.00000   0.00000
  27        2PZ         0.07425  -0.16139   0.00000   0.00000   0.00000
  28        3S          0.04634  -0.12357   0.00000   0.00000   0.00000
  29        3PX         0.00000   0.00000   0.28363  -0.43563  -0.39090
  30        3PY         0.03891  -0.01031   0.00000   0.00000   0.00000
  31        3PZ         0.11102  -0.24169   0.00000   0.00000   0.00000
  32        4S          0.00888  -0.03858   0.00000   0.00000   0.00000
  33        4PX         0.00000   0.00000   0.24854  -0.35705   0.47481
  34        4PY         0.02814  -0.00696   0.00000   0.00000   0.00000
  35        4PZ         0.05417  -0.12467   0.00000   0.00000   0.00000
  36        5S          0.00419  -0.00466   0.00000   0.00000   0.00000
  37        5PX         0.00000   0.00000   0.02596   0.02140   0.10020
  38        5PY         0.00265  -0.00043   0.00000   0.00000   0.00000
  39        5PZ        -0.00307   0.00756   0.00000   0.00000   0.00000
  40        6D 0        0.00980  -0.02056   0.00000   0.00000   0.00000
  41        6D+1        0.00000   0.00000   0.02687   0.00402  -0.26276
  42        6D-1       -0.00493   0.00100   0.00000   0.00000   0.00000
  43        6D+2        0.00521  -0.00978   0.00000   0.00000   0.00000
  44        6D-2        0.00000   0.00000   0.00000   0.00000   0.00000
  45 3   H  1S         -0.01937   0.07235   0.00000   0.00000   0.00000
  46        2S         -0.03428   0.11437   0.00000   0.00000   0.00000
  47        3S         -0.01970   0.04019   0.00000   0.00000   0.00000
  48        4S          0.00065   0.00559   0.00000   0.00000   0.00000
  49        5PX         0.00000   0.00000   0.01282   0.00962   0.01236
  50        5PY         0.00187  -0.01167   0.00000   0.00000   0.00000
  51        5PZ        -0.00210   0.00265   0.00000   0.00000   0.00000
  52 4   H  1S         -0.00685   0.07247   0.00000   0.00000   0.00000
  53        2S         -0.01326   0.11425   0.00000   0.00000   0.00000
  54        3S         -0.00873   0.03900   0.00000   0.00000   0.00000
  55        4S         -0.00233   0.00656   0.00000   0.00000   0.00000
  56        5PX         0.00000   0.00000   0.01282   0.00962   0.01236
  57        5PY        -0.00187   0.01196   0.00000   0.00000   0.00000
  58        5PZ        -0.00275   0.00250   0.00000   0.00000   0.00000
  59 5   H  1S         -0.00335   0.04148   0.00000   0.00000   0.00000
  60        2S         -0.00588   0.06961   0.00000   0.00000   0.00000
  61        3S         -0.00550   0.03315   0.00000   0.00000   0.00000
  62        4S         -0.00116   0.00327   0.00000   0.00000   0.00000
  63        5PX         0.00000   0.00000   0.01282  -0.00962   0.01236
  64        5PY         0.00202  -0.00694   0.00000   0.00000   0.00000
  65        5PZ         0.00359  -0.00472   0.00000   0.00000   0.00000
  66 6   H  1S         -0.04252   0.05151   0.00000   0.00000   0.00000
  67        2S         -0.06823   0.08546   0.00000   0.00000   0.00000
  68        3S         -0.02623   0.03805   0.00000   0.00000   0.00000
  69        4S         -0.00234   0.00389   0.00000   0.00000   0.00000
  70        5PX         0.00000   0.00000   0.01282  -0.00962   0.01236
  71        5PY        -0.00503   0.00781   0.00000   0.00000   0.00000
  72        5PZ        -0.00001  -0.00375   0.00000   0.00000   0.00000
                          11        12        13        14        15
     Eigenvalues --     0.00003   0.00000   0.00000   0.00000   0.00000
   1 1   C  1S          0.02061   0.00000   0.02670  -0.03748  -0.05548
   2        2S          0.04331   0.00000   0.04543   0.12760   0.11562
   3        2PX         0.00000   0.00000   0.00000   0.02849  -0.00458
   4        2PY         0.00000  -0.07889   0.00000  -0.24161  -0.05216
   5        2PZ        -0.04907   0.00000  -0.02417  -0.12386  -0.11450
   6        3S         -0.11722   0.00000  -0.14360  -0.42150  -0.19264
   7        3PX         0.00000   0.00000   0.00000  -0.08671  -0.03333
   8        3PY         0.00000  -0.13927   0.00000   0.33223  -0.03337
   9        3PZ        -0.08267   0.00000  -0.02983  -0.84348  -0.42859
  10        4S         -0.47873   0.00000  -0.38718  -0.46208  -0.43283
  11        4PX         0.00000   0.00000   0.00000   0.09123   0.04563
  12        4PY         0.00000  -0.25055   0.00000  -0.73281   1.47954
  13        4PZ        -0.16073   0.00000  -0.06217  -0.05951  -0.37622
  14        5S          1.03040   0.00000  -8.04417   0.53670  -0.14432
  15        5PX         0.00000   0.00000   0.00000  -0.01376  -0.00604
  16        5PY         0.00000   0.67008   0.00000   0.80766   1.18536
  17        5PZ         0.43940   0.00000   2.88791  -0.29730   0.85420
  18        6D 0        0.00020   0.00000   0.00000   0.22438   0.17622
  19        6D+1        0.00000   0.00000   0.00000  -0.01243  -0.01636
  20        6D-1        0.00000  -0.00001   0.00000   0.31402   0.05953
  21        6D+2        0.00024   0.00000  -0.00002   0.26458   0.20222
  22        6D-2        0.00000   0.00000   0.00000  -0.00019  -0.01498
  23 2   C  1S          0.02021   0.00000  -0.02670   0.15015  -0.06041
  24        2S          0.04377   0.00000  -0.04542  -0.00847   0.03870
  25        2PX         0.00000   0.00000   0.00000  -0.00540  -0.02329
  26        2PY         0.00000  -0.07889   0.00000  -0.30511   0.01866
  27        2PZ         0.04920   0.00000  -0.02417   0.05476   0.21557
  28        3S         -0.11745   0.00000   0.14357  -0.95967   0.06455
  29        3PX         0.00000   0.00000   0.00000   0.05251   0.10457
  30        3PY         0.00000  -0.13927   0.00000   1.36019  -0.31411
  31        3PZ         0.08183   0.00000  -0.02981  -0.89311  -0.96820
  32        4S         -0.47886   0.00000   0.38714   2.19159  -0.48307
  33        4PX         0.00000   0.00000   0.00000  -0.05242   0.05193
  34        4PY         0.00000  -0.25052   0.00000   1.16956  -1.90100
  35        4PZ         0.16062   0.00000  -0.06215  -0.07786   0.54376
  36        5S          1.02867   0.00000   8.04424  -0.85420  -0.47743
  37        5PX         0.00000   0.00000   0.00000   0.01837   0.00491
  38        5PY         0.00000   0.67021   0.00000   0.71172  -2.54661
  39        5PZ        -0.43989   0.00000   2.88787  -0.51622   0.68536
  40        6D 0       -0.00013   0.00000   0.00001  -0.03499  -0.11115
  41        6D+1        0.00000   0.00000   0.00000  -0.00206  -0.08305
  42        6D-1        0.00000   0.00001   0.00000  -0.27676   0.14659
  43        6D+2        0.00008   0.00000   0.00002  -0.23796  -0.20087
  44        6D-2        0.00000   0.00000   0.00000   0.00102   0.08860
  45 3   H  1S         -0.01660  -0.00608  -0.00615   0.13082   0.13941
  46        2S          0.07079   0.09750   0.04979   0.48072   0.14249
  47        3S         -0.18601  -0.11731  -0.01557   0.11041  -0.96040
  48        4S          0.00003  -0.00003   0.00004  -1.15178  -0.56053
  49        5PX         0.00000   0.00000   0.00000   0.00469  -0.00435
  50        5PY        -0.00039   0.00003  -0.00002  -0.07778  -0.11536
  51        5PZ        -0.00017   0.00003   0.00000  -0.02105  -0.00029
  52 4   H  1S         -0.01660   0.00608  -0.00615   0.21001  -0.03714
  53        2S          0.07079  -0.09750   0.04979   0.48207   0.81132
  54        3S         -0.18601   0.11731  -0.01557   0.22639   0.79236
  55        4S          0.00003   0.00003   0.00004   1.31408  -0.64526
  56        5PX         0.00000   0.00000   0.00000   0.00407  -0.03784
  57        5PY         0.00039   0.00003   0.00002   0.35893   0.25379
  58        5PZ        -0.00017  -0.00003   0.00000  -0.21155  -0.01786
  59 5   H  1S         -0.01658  -0.00608   0.00615  -0.29395  -0.46284
  60        2S          0.07046   0.09749  -0.04980  -1.32309  -0.16522
  61        3S         -0.18590  -0.11735   0.01556  -1.82861   4.09261
  62        4S          0.00006  -0.00012  -0.00001  -0.08340   1.13469
  63        5PX         0.00000   0.00000   0.00000  -0.05800  -0.46874
  64        5PY        -0.00021   0.00002   0.00002   0.46232  -0.11895
  65        5PZ         0.00013  -0.00002  -0.00001  -0.38030   0.26118
  66 6   H  1S         -0.01658   0.00608   0.00615   0.15184   0.08171
  67        2S          0.07046  -0.09749  -0.04980   0.25160  -0.96579
  68        3S         -0.18590   0.11735   0.01556   0.55291  -1.35402
  69        4S          0.00006   0.00012  -0.00001   0.24407  -0.33999
  70        5PX         0.00000   0.00000   0.00000  -0.05278  -0.01381
  71        5PY         0.00021   0.00002  -0.00002   0.38527  -0.48904
  72        5PZ         0.00013   0.00002  -0.00001   0.33447  -0.28802
                          16        17        18        19        20
     Eigenvalues --     0.00000   0.00000   0.00000   0.00000   0.00000
   1 1   C  1S          0.06510   0.38669   0.05967  -0.09154   0.13158
   2        2S         -0.02856  -0.32684  -0.17346   0.32244  -0.22713
   3        2PX         0.05825  -0.03631  -0.04828  -0.05127  -0.05528
   4        2PY         0.10114  -0.38502  -0.40585  -0.40513  -0.10878
   5        2PZ        -0.19416  -0.00960   0.01330   0.07972  -0.22598
   6        3S         -0.25110  -0.43910   0.79387  -0.98712   0.19361
   7        3PX        -0.12030   0.09260   0.15755   0.07129   0.04004
   8        3PY        -0.27804   1.40735   0.03395   0.96561   1.03993
   9        3PZ         0.35764   0.05406  -1.00956  -0.04270  -0.43068
  10        4S          0.79221  -1.31571  -1.67782  -3.05595   2.48734
  11        4PX         0.07182  -0.06984  -0.11379  -0.01196   0.02483
  12        4PY        -0.35891  -1.22576  -0.81002  -1.77354  -1.55106
  13        4PZ        -0.39250  -0.14464  -0.15198   0.85770  -0.25212
  14        5S          1.09764   0.04674  -0.46480  -0.50933  -0.73710
  15        5PX        -0.01349  -0.00343  -0.05265   0.01173   0.00456
  16        5PY        -0.16177   1.86507  -0.45598  -1.19918   0.47737
  17        5PZ        -0.33120   0.40323   0.48657  -0.33756   0.15341
  18        6D 0       -0.04193  -0.03296   0.11007  -0.30835   0.21714
  19        6D+1        0.00742  -0.01550  -0.01115   0.00444  -0.02111
  20        6D-1       -0.04452   0.54073  -0.12087  -0.09278   0.16756
  21        6D+2       -0.07754   0.13241   0.33974   0.29297  -0.13455
  22        6D-2       -0.01211   0.00612  -0.00565  -0.00723  -0.01223
  23 2   C  1S         -0.24129  -0.24663   0.06051   0.22306  -0.07604
  24        2S          0.29317   0.27943  -0.00119  -0.33658   0.21372
  25        2PX        -0.03077   0.05048   0.10150   0.01392  -0.04942
  26        2PY         0.00854  -0.30658  -0.02404   0.34444   0.41051
  27        2PZ        -0.01409   0.29191  -0.08186  -0.00373  -0.22233
  28        3S         -0.06959  -0.18449  -0.12439   0.33936  -0.54315
  29        3PX         0.13211  -0.12182  -0.23998  -0.02020   0.05012
  30        3PY        -0.45276   0.96538  -0.00304  -1.01451  -1.27605
  31        3PZ         0.09611  -0.46799  -0.09693   0.55969   0.08881
  32        4S          0.59731   0.61115  -0.16422   2.51775  -1.33920
  33        4PX         0.08693  -0.03525   0.10735   0.00816   0.05093
  34        4PY         0.43809   0.45499   0.14210   1.12770   1.27135
  35        4PZ        -0.54189   1.25587  -0.56641   1.10764  -1.42377
  36        5S         -1.67930   0.11884   1.78921   2.05248   0.56860
  37        5PX        -0.01468   0.03686   0.01442  -0.01276  -0.05441
  38        5PY        -0.05319  -2.88323  -0.10320   2.21548  -0.17780
  39        5PZ        -0.56506  -0.04731   0.68202  -0.26733   0.50644
  40        6D 0        0.11779   0.21814  -0.35840   0.20964  -0.22647
  41        6D+1       -0.07526   0.03461   0.00670  -0.01278  -0.04287
  42        6D-1        0.24189  -0.22921   0.10260   0.11471   0.19469
  43        6D+2        0.03955  -0.04899  -0.05129  -0.00211   0.05820
  44        6D-2        0.13458  -0.04043  -0.00215   0.05313   0.02490
  45 3   H  1S          0.09908  -0.49775   0.28958  -0.48935  -0.52089
  46        2S         -0.00070   0.45303   1.62135   1.76570   0.21251
  47        3S          0.33480   0.05677  -0.47623   0.41313  -0.11495
  48        4S          0.22478  -1.34235   0.59028   0.67729  -0.56738
  49        5PX        -0.01188   0.00376  -0.00798  -0.02756  -0.00652
  50        5PY        -0.01921   0.26766  -0.29651  -0.37181   0.37775
  51        5PZ        -0.04806   0.20003  -0.15443  -0.10084   0.21255
  52 4   H  1S         -0.04243   0.16260  -0.12195  -0.24961   0.57083
  53        2S         -0.29455   0.69745   0.54037   0.95004  -0.88832
  54        3S         -0.10337  -0.44999  -0.14238  -0.79352  -0.48997
  55        4S         -0.04104   1.18137  -1.16895  -0.23330   0.63171
  56        5PX        -0.00701   0.01505  -0.03840  -0.03844  -0.05753
  57        5PY        -0.18548   0.99294   0.06919   0.55682   0.48407
  58        5PZ         0.04841  -0.11685   0.05745  -0.32146  -0.01447
  59 5   H  1S          1.12404   0.61314   0.30379  -0.32349  -0.13708
  60        2S         -1.00359  -1.98092  -0.39488   1.14647   0.81500
  61        3S         -0.21579   2.33843   0.54948  -2.76037  -1.08030
  62        4S          0.05655   1.87276  -0.26149  -1.52097   0.56368
  63        5PX        -0.63561   0.27749   0.17355  -0.13904  -0.15664
  64        5PY        -0.10091   0.23941   0.07037  -0.24443  -0.26289
  65        5PZ         0.12808  -0.08753   0.01249  -0.06433   0.34950
  66 6   H  1S          0.16692  -0.29153  -0.27954   0.50792  -0.10060
  67        2S         -0.18719   1.25079   0.35549  -0.96905  -0.19970
  68        3S         -0.91270  -0.97934  -0.69520   0.93948   0.49714
  69        4S          0.55129  -2.06324   0.10477   0.51967  -0.20886
  70        5PX         0.06079   0.06977   0.15999   0.13493  -0.03298
  71        5PY        -0.28526   0.24260   0.00246  -0.34428   0.12539
  72        5PZ        -0.06865   0.09675  -0.08627  -0.36769  -0.11567
                          21        22        23        24        25
     Eigenvalues --     0.00000   0.00000   0.00000   0.00000   0.00000
   1 1   C  1S          0.00527  -0.01986  -0.07916   0.11333  -0.06409
   2        2S          0.04003   0.06397   0.18486  -0.07946   0.09387
   3        2PX         0.00419   0.41475  -0.01480   0.02170  -0.22698
   4        2PY        -0.00976  -0.11185   0.12437   0.11580   0.06790
   5        2PZ         0.07076   0.02905  -0.05770   0.05240  -0.09397
   6        3S         -0.20053  -0.24556  -0.48396   0.23243  -0.01438
   7        3PX         0.07432  -0.74531   0.28018  -0.03126   0.15832
   8        3PY         0.00811   0.09517  -0.44670  -0.58606  -0.52319
   9        3PZ         0.10672   0.12982   0.17597   0.02784  -0.74086
  10        4S         -0.64680  -0.04169  -1.04710  -2.59449  -1.22702
  11        4PX        -0.11706   0.32657  -0.39010   0.03103   0.10093
  12        4PY        -0.40265  -0.78959  -0.59327   1.16239   0.55811
  13        4PZ         0.46967  -0.35658   0.31364   0.84347   0.10612
  14        5S         -0.20116  -3.74414  -5.44863  -1.04372  -7.07376
  15        5PX         0.00753   0.46519  -0.06329  -0.01250   0.04603
  16        5PY        -0.45450  -0.18362   1.51509   2.42498  -1.57493
  17        5PZ        -0.20514   1.25108   1.23634  -0.27030   1.42435
  18        6D 0       -0.21523  -0.15625  -0.06351  -0.24930   0.53091
  19        6D+1       -0.01249   0.19965  -0.03714   0.03796  -0.03370
  20        6D-1        0.02088  -0.04904  -0.07485   0.28763  -0.13101
  21        6D+2        0.00149   0.02001   0.04375   0.09207   0.26810
  22        6D-2       -0.00029  -0.00824   0.01071  -0.01487  -0.00886
  23 2   C  1S          0.01156  -0.03781  -0.07920   0.13988  -0.04460
  24        2S          0.07232   0.12463   0.21060  -0.18927   0.02215
  25        2PX         0.08960  -0.61682   0.46609  -0.09990  -0.28044
  26        2PY         0.02358  -0.03743   0.07104  -0.18177   0.42699
  27        2PZ         0.01187   0.00293   0.10615  -0.06967   0.27969
  28        3S         -0.48746  -0.42961  -0.73011   0.18313   0.18423
  29        3PX        -0.14916   1.22748  -0.76888   0.16798   0.31585
  30        3PY         0.23030  -0.12547  -0.43241   0.64614  -1.27523
  31        3PZ         0.62981   0.75969   0.71896   0.46641  -1.24046
  32        4S          0.15136  -0.86073   0.01824   1.74019  -0.12724
  33        4PX         0.11039  -1.09467   0.66605  -0.18834  -0.39454
  34        4PY         0.99943   1.33251   1.89495  -1.08314   0.32518
  35        4PZ         0.25591  -0.01656   1.00243   0.63453   0.70612
  36        5S          0.71389   4.96204   6.51906   0.21616   6.40821
  37        5PX         0.01016   0.14401  -0.08812   0.11444   0.00672
  38        5PY         0.37791  -0.02869  -1.00644  -2.39871   1.81743
  39        5PZ        -0.21267   0.92334   0.93715   0.52427   1.90669
  40        6D 0        0.37383   0.14918   0.20285   0.08079  -0.26194
  41        6D+1       -0.02233   0.27929  -0.09577   0.04050   0.06000
  42        6D-1       -0.15586  -0.08815  -0.08112  -0.02667   0.31663
  43        6D+2        0.40279   0.31736   0.29578  -0.02644  -0.24585
  44        6D-2        0.01584   0.00103   0.06623   0.03804  -0.07369
  45 3   H  1S         -0.04398  -0.05493   0.10347  -0.16072   0.26840
  46        2S          0.27838   0.46507   0.27972   0.54008   0.02556
  47        3S          0.02801   0.27608   0.32763  -0.93847   0.91624
  48        4S          0.52445  -0.05741  -1.45365  -1.03280   1.10477
  49        5PX        -0.00110   0.13620  -0.04123   0.01656   0.02591
  50        5PY        -0.02823  -0.09511  -0.31127  -0.09501  -0.54525
  51        5PZ        -0.01209   0.03071  -0.14007  -0.09022  -0.32536
  52 4   H  1S          0.04362  -0.12794   0.04969   1.25022   0.11312
  53        2S         -0.03413   0.17098  -0.27467  -1.17190   0.00091
  54        3S         -0.11509  -0.23255   0.54619   2.11250   0.99749
  55        4S         -0.15300  -0.34883   1.49447   1.05722  -1.37806
  56        5PX         0.00563   0.08861   0.05105  -0.04312  -0.05977
  57        5PY         0.06842   0.04023  -0.06215   0.16585   0.01405
  58        5PZ        -0.02729   0.00052  -0.09640   0.01421  -0.20656
  59 5   H  1S          0.04922  -0.07869  -0.11209   0.00259   0.41607
  60        2S          0.11918   0.60370   0.69151  -0.04562  -0.45782
  61        3S         -0.45099  -0.82883  -0.92284   0.85604   0.21717
  62        4S         -0.69614  -0.16998   0.02229   1.44522  -1.80042
  63        5PX        -0.01632  -0.03048  -0.12853  -0.05923   0.39070
  64        5PY        -0.11795  -0.26974  -0.45941   0.00449  -0.11874
  65        5PZ         0.10213   0.09771  -0.02376  -0.20893  -0.08187
  66 6   H  1S          0.04492  -0.43191  -0.61391   0.17285   0.26120
  67        2S          0.95680   1.91331   2.34483  -0.11037  -1.69178
  68        3S          0.30320  -0.44733  -0.27020  -1.02745   1.42866
  69        4S         -0.04694  -0.09938  -0.98610  -0.91015   1.61194
  70        5PX         0.06669  -0.03102   0.22423   0.13194   0.00121
  71        5PY         0.36367   0.35893   0.51518  -0.03182  -0.21974
  72        5PZ         1.32986   0.18374  -0.02832  -0.05228  -0.35213
                          26        27        28        29        30
     Eigenvalues --     0.00000   0.00000   0.00000   0.00000   0.00000
   1 1   C  1S          0.05073   0.04747   0.05252  -0.00766   0.13488
   2        2S         -0.04088  -0.08457  -0.08891   0.06186  -0.04483
   3        2PX        -0.00099  -0.30029  -0.01048  -0.40938  -0.09401
   4        2PY        -0.23587  -0.00751   0.09834   0.06571  -0.01479
   5        2PZ        -0.02683   0.10883   0.21480  -0.14458   0.15989
   6        3S         -0.03380   0.25589   0.05399  -0.42803  -0.53580
   7        3PX        -0.04379   0.52027   0.11500   0.71946  -0.07126
   8        3PY        -0.72872   0.09187  -0.28207  -0.09443   0.59472
   9        3PZ         0.51888   0.58035  -0.33457  -0.38088  -0.37590
  10        4S         -1.66789  -2.12975   1.16950   1.40119   0.42179
  11        4PX         0.03938  -0.28458  -0.08965  -0.37943   0.17987
  12        4PY         2.12146  -0.10408   0.63300   0.88220   3.03064
  13        4PZ         0.81807   2.98567  -0.17450  -0.76792  -0.31919
  14        5S          3.63910   7.93360   3.25968  -4.07384   1.99407
  15        5PX         0.00329   0.11505  -0.05755   0.02862   0.09797
  16        5PY        -2.35496  -3.91956  -1.04567   4.47164   5.87375
  17        5PZ        -1.95033  -3.02438  -2.19766   1.04344   0.45185
  18        6D 0       -0.48395  -0.36153  -0.15128   0.12391  -0.06287
  19        6D+1        0.00612  -0.16002  -0.09296  -0.27786   0.02195
  20        6D-1       -0.22497   0.38681  -0.35670  -0.32383   0.55672
  21        6D+2       -0.17897  -0.21180  -0.16868   0.02205   0.25357
  22        6D-2        0.00649  -0.02754   0.00395  -0.02542   0.01007
  23 2   C  1S         -0.29132   0.10200   0.17061  -0.18187   0.22987
  24        2S          0.27740  -0.10650   0.02365   0.19052  -0.26174
  25        2PX         0.01152  -0.06421   0.04759   0.01289  -0.10683
  26        2PY         0.08844   0.36769  -0.36904  -0.28355  -0.04244
  27        2PZ        -0.24284  -0.16180   0.21988  -0.09425  -0.09670
  28        3S          0.02985  -0.21813  -0.68303   0.12450   0.11801
  29        3PX        -0.03745   0.17546  -0.11795   0.15811   0.04910
  30        3PY        -0.36963  -0.69547  -0.16981   0.94947  -0.14778
  31        3PZ         0.75621   0.52188  -0.13732  -0.19040   0.28206
  32        4S          2.48009   4.56711  -0.07894  -1.55091  -0.26501
  33        4PX         0.14293  -0.57588  -0.06497  -0.77499   0.17757
  34        4PY        -1.27484   0.69409  -0.24487  -1.70972  -1.93796
  35        4PZ         0.04027   1.91975  -0.53000  -0.83039  -0.65515
  36        5S         -4.65974  -8.32320  -4.03936   3.30682   0.82671
  37        5PX        -0.15670   0.44942   0.17850   0.82460  -0.42545
  38        5PY         2.46924   4.36579   0.68554  -3.39217  -5.30689
  39        5PZ        -1.37121  -2.93999  -1.97503   1.02882  -0.73126
  40        6D 0        0.28654   0.32018   0.02641  -0.13180   0.00147
  41        6D+1       -0.01327  -0.15399  -0.04936  -0.26261   0.06363
  42        6D-1        0.56727   0.31526  -0.24360  -0.37719   0.06920
  43        6D+2       -0.11255  -0.13231   0.24964  -0.01664   0.00157
  44        6D-2        0.00592   0.04961  -0.06432   0.07075  -0.00450
  45 3   H  1S         -0.40126   0.28088   0.01094   0.03567   0.43208
  46        2S         -0.03753  -1.07202  -0.18366   0.01184  -1.05903
  47        3S         -0.27720  -0.30885  -0.10715  -0.60001  -3.08780
  48        4S          2.81576   3.57077   2.52247  -3.41287  -4.38472
  49        5PX         0.00396   0.05278   0.00034   0.03226  -0.04735
  50        5PY        -0.19412   0.70426  -0.03683  -0.53351  -0.10577
  51        5PZ         0.14913   0.00621   0.20295   0.00502   0.25682
  52 4   H  1S         -0.25583  -0.05321   0.00263  -0.14811  -0.03115
  53        2S         -0.36510  -0.25189  -0.47534   0.15006   1.53641
  54        3S          2.04255  -1.64626   0.74609   1.53304   2.23423
  55        4S         -2.22642  -1.28612  -0.19067   3.30782   3.69534
  56        5PX         0.04275  -0.07451  -0.01362  -0.08092   0.00897
  57        5PY        -0.14627  -0.11241  -0.17285   0.08791   0.88933
  58        5PZ         0.25569   0.11332   0.17782  -0.16422  -0.66285
  59 5   H  1S          0.18995   0.12419  -0.07949  -0.11996  -0.00008
  60        2S          0.28543  -0.24312   0.53415  -0.00420   0.54949
  61        3S         -0.39405  -0.93735  -0.16569   1.29335   0.93715
  62        4S         -2.44405  -3.76613  -1.88909   2.08321   3.23708
  63        5PX        -0.06728   0.03271   0.27532  -0.08479  -0.02847
  64        5PY         0.00193  -0.30886   0.01905   0.50578   0.08463
  65        5PZ        -0.02811   0.04109   0.44304  -0.11942   0.12060
  66 6   H  1S         -0.27321   0.00873   0.81444   0.03203   0.03526
  67        2S         -0.78783  -0.53946  -0.58315   0.03016  -0.55100
  68        3S         -0.21132   1.26849  -0.34550  -1.09639  -1.70328
  69        4S          2.02028   2.21042  -0.11232  -1.80920  -4.45523
  70        5PX        -0.03344   0.28021  -0.05806   0.27595  -0.04878
  71        5PY        -0.29663  -0.20935  -0.15065   0.17766  -0.14730
  72        5PZ        -0.11869  -0.20429  -0.07463   0.13498  -0.04853
                          31        32        33        34        35
     Eigenvalues --     0.00000   0.00000   0.00000   0.00000   0.00000
   1 1   C  1S          0.16937  -0.07998  -0.05445   0.05023  -0.04422
   2        2S         -0.23553   0.04542   0.08992  -0.04360   0.10229
   3        2PX        -0.14336   0.08032  -0.26827  -0.04776   0.26574
   4        2PY         0.32405  -0.24131  -0.27835  -0.20630   0.00895
   5        2PZ         0.14465   0.03598   0.05694   0.12997   0.05071
   6        3S          0.23380   0.27175  -0.17064  -0.24440  -0.28447
   7        3PX         0.23930   0.09168   0.22698   0.08193  -0.26706
   8        3PY        -0.70574   0.25682   0.68919   0.29761   0.01478
   9        3PZ         0.54128  -0.03737   0.33976   0.44365  -0.00050
  10        4S          2.31977   0.17694   3.27576   2.47820   1.47173
  11        4PX         0.02426  -0.12018  -0.04449  -0.06100  -0.00884
  12        4PY        -0.29462   0.38179  -0.36724   0.36744  -0.32416
  13        4PZ        -2.70217  -0.99698  -0.90773  -2.48544  -0.41940
  14        5S         -9.94461  10.98525  -7.28500 -15.84319  -1.60941
  15        5PX         0.00854  -0.13855   0.12115  -0.10818  -0.18765
  16        5PY         1.19101   5.18168   0.61284  -1.91882  -1.61544
  17        5PZ         2.49246  -1.42151   1.58944   6.67747   1.92287
  18        6D 0       -0.17137   0.16664  -0.18686   0.19732  -0.35477
  19        6D+1       -0.16312  -0.06865  -0.14675  -0.07397   0.20129
  20        6D-1       -0.11188   0.32228   0.38431   0.22178   0.02925
  21        6D+2       -0.05852   0.08103  -0.44455   0.08164  -0.21136
  22        6D-2       -0.02206  -0.00794   0.03500   0.01933  -0.00175
  23 2   C  1S          0.31633   0.26135  -0.17059  -0.20703   0.07281
  24        2S         -0.38490  -0.37551   0.14426   0.23676  -0.08190
  25        2PX        -0.08899   0.31212  -0.14592   0.03509   0.19549
  26        2PY        -0.13101   0.22112   0.06370   0.18656   0.35370
  27        2PZ         0.04777  -0.06522   0.00001  -0.09405   0.18800
  28        3S          0.43305   0.53184   0.15423  -0.09240   0.26387
  29        3PX         0.07835  -0.18957   0.04739  -0.05071  -0.08627
  30        3PY        -0.00204  -0.97599  -0.31248  -0.09440   0.14742
  31        3PZ         0.48948  -0.19724   0.56963   0.33900   0.10844
  32        4S         -3.57379  -1.66156  -2.47373  -2.74572  -1.36426
  33        4PX        -0.14529  -0.22695   0.02660  -0.01732  -0.00218
  34        4PY         1.06565   0.81037   0.56021  -0.50259  -0.04271
  35        4PZ        -2.56050  -0.35759  -1.36672  -1.37856  -0.74049
  36        5S          6.50968  -6.91671   2.98419  18.37115  -0.39667
  37        5PX         0.09091   0.65323  -0.29370   0.18385   0.28786
  38        5PY        -0.80362  -6.67326   0.24717   2.29265   2.91794
  39        5PZ         4.44185  -2.58255   2.76387   4.49441   2.20312
  40        6D 0        0.12032  -0.21728  -0.13657   0.38347   0.19661
  41        6D+1       -0.20309  -0.09747  -0.07723  -0.04709   0.13895
  42        6D-1        0.18506   0.46907   0.11015   0.02396  -0.17041
  43        6D+2        0.12171  -0.05471   0.28855   0.31664   0.20907
  44        6D-2        0.05018  -0.07190   0.02293  -0.01167  -0.03854
  45 3   H  1S          0.09772  -0.34430  -0.14999   0.20129   0.03503
  46        2S          0.23042   0.48598  -0.74825  -0.75483  -0.21323
  47        3S          0.28418  -1.63759   0.31089   1.21569   0.37733
  48        4S         -1.39255  -4.59196  -0.91861  -0.29278  -1.54522
  49        5PX        -0.07781  -0.03671  -0.00427  -0.01187   0.07216
  50        5PY         0.07302   0.09802   0.30117   0.24995  -0.05301
  51        5PZ        -0.00676   0.32673   0.84238   0.27557   0.10304
  52 4   H  1S         -0.13662   0.15257   0.05353  -0.04166   0.18408
  53        2S         -1.01456   0.36647  -0.09872   0.59474  -0.96306
  54        3S          2.37674   0.57597  -0.31039  -0.33224   0.46646
  55        4S         -0.13457   2.58036   1.16284  -3.06586  -1.90138
  56        5PX        -0.17083  -0.12805   0.19298   0.07728   0.04008
  57        5PY         0.08750   0.05843  -0.13432   0.18704  -0.05126
  58        5PZ         0.38016  -0.15015   0.13335   0.39357   0.14683
  59 5   H  1S          0.04934   0.24442   0.08506  -0.12648   0.18015
  60        2S         -0.13839  -0.19846   0.20767   1.09248  -0.25940
  61        3S         -0.69479   0.95993  -0.08479  -1.41957   0.11879
  62        4S          2.99856   5.08926   1.42841  -1.45551   0.60401
  63        5PX        -0.18650   0.07453   0.01859  -0.00056   0.09831
  64        5PY        -0.20946  -0.38878  -0.33540  -0.00023   0.21687
  65        5PZ        -0.00432   0.11111   0.55702   0.03810   0.05096
  66 6   H  1S          0.02467  -0.19635   0.07956   0.34126   0.28472
  67        2S          0.09798   0.01495   0.06955  -0.15382  -0.00086
  68        3S          0.79030  -0.88162   1.05986  -0.28608   1.44271
  69        4S          0.89478  -6.06578   1.75021   2.91254   3.60355
  70        5PX         0.06436  -0.30280   0.15599  -0.05076  -0.10160
  71        5PY         0.08312  -0.40172   0.16725   0.04273   0.16023
  72        5PZ         0.18454  -0.16645   0.12265   0.14316   0.15542
                          36        37        38        39        40
     Eigenvalues --     0.00000   0.00000   0.00000   0.00000   0.00000
   1 1   C  1S          0.06209  -0.00507   0.03526   0.00575   0.06442
   2        2S         -0.06481   0.04002  -0.06240  -0.01293  -0.05152
   3        2PX         0.18721   0.20739   0.27667   0.10969  -0.00276
   4        2PY        -0.08157   0.01476  -0.11207   0.05752  -0.05398
   5        2PZ         0.00475  -0.08552  -0.01967   0.02044  -0.03231
   6        3S          0.02158  -0.31821  -0.03175  -0.06442   0.07352
   7        3PX        -0.15957  -0.14998  -0.21283  -0.03951   0.05736
   8        3PY        -0.10808   0.48312   0.02654  -0.02735  -0.18953
   9        3PZ        -0.36009  -0.14197   0.24476   0.04240  -0.46809
  10        4S         -0.11185   1.02520   1.86299   0.64813  -0.94246
  11        4PX         0.18992   0.04925   0.25110  -0.17448   0.02171
  12        4PY        -0.34073   0.32176   1.16874   0.44009  -0.58572
  13        4PZ        -0.06390  -0.38527   0.24037  -0.14673   0.08338
  14        5S         19.07548 -10.98527 -23.60373  -2.52537  -0.12406
  15        5PX        -0.29828  -0.40297  -0.59669   0.42694  -0.34637
  16        5PY        -6.71345  -4.35390  -1.80551   1.85828  -2.93524
  17        5PZ        -6.01804   1.66800   5.36365   0.45415   0.67427
  18        6D 0        0.51105   0.07153   0.06946  -0.02627  -0.15529
  19        6D+1        0.25709   0.17328   0.16564   0.26101  -0.07370
  20        6D-1        0.26301   0.42709  -0.30702  -0.19572  -0.17919
  21        6D+2        0.17763   0.40099  -0.35748   0.02501   0.59585
  22        6D-2       -0.05661   0.04432  -0.00383  -0.25072  -0.06449
  23 2   C  1S         -0.23778  -0.09544  -0.03554   0.05728   0.04695
  24        2S          0.21263   0.13995   0.11178  -0.05151  -0.01913
  25        2PX        -0.00806   0.08881  -0.22090   0.32298  -0.24532
  26        2PY        -0.01915   0.10876  -0.03065   0.05795  -0.22819
  27        2PZ         0.23747  -0.13864   0.07678  -0.02027  -0.07140
  28        3S          0.08712  -0.26746  -0.31489  -0.04701  -0.14943
  29        3PX         0.11065  -0.02763   0.20073  -0.15510   0.19130
  30        3PY         0.52169  -0.00987  -0.45715  -0.30986   0.17564
  31        3PZ        -0.62645   0.18349   0.16777  -0.03360   0.23404
  32        4S         -0.40465   0.00615  -0.87246  -0.06074  -0.56354
  33        4PX        -0.11756  -0.09915  -0.11782   0.17181   0.01587
  34        4PY         0.73552  -0.09595  -1.52472  -0.48843   0.17277
  35        4PZ         0.05997  -0.58160  -0.26729  -0.14951   0.20733
  36        5S        -19.66591   6.23953  23.77362   0.99870   3.44630
  37        5PX         0.30860   0.58642   0.62195  -0.56582   0.26159
  38        5PY         6.55190   4.55048   1.38901  -1.41135   3.99288
  39        5PZ        -5.50767   2.25822   6.11683   0.79100  -0.02822
  40        6D 0       -0.12037  -0.42107   0.22655   0.09373  -0.48077
  41        6D+1        0.10347   0.14070   0.10891  -0.07555  -0.12918
  42        6D-1       -0.21963   0.21070   0.35104   0.19512  -0.33070
  43        6D+2        0.00439  -0.24002   0.22745  -0.01546   0.16793
  44        6D-2        0.05188  -0.04452   0.00043   0.03503   0.00119
  45 3   H  1S         -0.03714   0.00429   0.33306   0.13639   0.08492
  46        2S          0.24082  -0.39978  -1.31395  -0.15576   0.41662
  47        3S          0.97763   0.54563   0.58296  -0.83599   1.23401
  48        4S          5.50989   5.83041   1.21344  -0.63172   0.50548
  49        5PX        -0.05123  -0.19695  -0.25094   0.72892   0.16993
  50        5PY        -0.30590   0.04804   0.04097  -0.07787  -0.50757
  51        5PZ        -0.22355   0.02697   0.34386   0.26056  -0.27518
  52 4   H  1S         -0.03543   0.11812  -0.04819  -0.03853   0.03938
  53        2S          0.73712   0.40392  -0.26240  -0.02301   0.06090
  54        3S         -2.46038   0.67866  -0.17096   0.55702  -0.78288
  55        4S         -3.12818  -3.41234  -0.43138   1.21187  -2.00814
  56        5PX        -0.32521  -0.01610  -0.30637  -0.44328  -0.20341
  57        5PY         0.14980   0.43779  -0.32429  -0.02504   0.06150
  58        5PZ         0.04751  -0.52140   0.01543  -0.02642   0.26077
  59 5   H  1S         -0.19688  -0.01996  -0.03418   0.07628  -0.12643
  60        2S         -0.30840  -0.01260   1.53198   0.09829   0.55926
  61        3S         -1.26449  -0.45768  -1.10648   0.62197  -1.42015
  62        4S         -4.84071  -3.88223  -0.39454   0.84488  -3.37414
  63        5PX        -0.13387   0.08837  -0.03080   0.02016  -0.08068
  64        5PY         0.65218  -0.20564  -0.52150  -0.20473  -0.36495
  65        5PZ         0.01827  -0.11691   0.41221   0.07123   0.12189
  66 6   H  1S          0.25029  -0.02805  -0.01915   0.02336  -0.12063
  67        2S         -0.29510  -0.04839  -0.45322  -0.43960   0.52744
  68        3S          2.79329   0.11487  -0.76532  -0.32382   0.62004
  69        4S          3.14065   5.34178  -0.03215  -0.03904   2.15328
  70        5PX         0.11063  -0.11803  -0.03611   0.09259  -0.12886
  71        5PY         0.25457   0.04665  -0.07025  -0.17999   0.31963
  72        5PZ         0.15976  -0.05633  -0.04733  -0.07238   0.01341
                          41        42        43        44        45
     Eigenvalues --     0.00000   0.00000   0.00000   0.00000   0.00000
   1 1   C  1S         -0.01741  -0.00106   0.03579   0.04286  -0.02158
   2        2S          0.02075   0.00140  -0.04316  -0.07382   0.00334
   3        2PX        -0.01899   0.00228   0.04012  -0.03816  -0.01927
   4        2PY         0.05109  -0.00300  -0.10746   0.19152  -0.04403
   5        2PZ         0.01974  -0.00128  -0.04018   0.08603   0.05313
   6        3S          0.01135  -0.00462  -0.02830   0.29059   0.15834
   7        3PX        -0.04011   0.00252   0.07986  -0.11687  -0.04005
   8        3PY        -0.01913   0.00566   0.04868  -0.27014   0.35492
   9        3PZ         0.11284   0.00215  -0.24085  -0.27606   0.14909
  10        4S         -0.50873   0.03252   1.11656  -2.07836  -0.22565
  11        4PX         0.09592  -0.00314  -0.21926  -0.02117  -0.03113
  12        4PY        -0.11554  -0.00277   0.28086   0.68667   0.21849
  13        4PZ         0.17468  -0.01457  -0.38828   1.19915  -0.47748
  14        5S          6.03202  -0.10891 -13.04729   4.09624 -16.32849
  15        5PX        -0.50979   0.01293   1.09827   0.24132  -0.63311
  16        5PY         2.68968  -0.10947  -5.76287   4.71443   0.01833
  17        5PZ        -1.19697   0.02916   2.56191  -2.03850   4.06081
  18        6D 0       -0.16537   0.00206   0.37392   0.30559   0.39002
  19        6D+1        0.14382  -0.01096  -0.31733   0.40619  -0.08984
  20        6D-1       -0.01591   0.00565   0.03554  -0.39545   0.25255
  21        6D+2       -0.08620  -0.00404   0.18883   0.52464   0.11246
  22        6D-2        1.00054   0.02168   0.52553   0.07658  -0.08807
  23 2   C  1S          0.04617  -0.00042  -0.09836  -0.02469   0.02913
  24        2S         -0.07201   0.00082   0.15453   0.03567  -0.04422
  25        2PX        -0.19352   0.00300   0.43235   0.29911  -0.16728
  26        2PY         0.01818   0.00243  -0.03465  -0.07436  -0.06483
  27        2PZ         0.00845   0.00288  -0.01663  -0.16605  -0.16004
  28        3S          0.09617  -0.00026  -0.21446  -0.21017   0.02124
  29        3PX         0.17016  -0.00393  -0.37603  -0.16885   0.14681
  30        3PY        -0.01433   0.00012   0.01067   0.00200   0.02263
  31        3PZ         0.03632  -0.00187  -0.09183  -0.24641  -0.06284
  32        4S          0.64652  -0.02348  -1.37925   1.92411  -0.11425
  33        4PX        -0.07548   0.00284   0.18037  -0.01121  -0.02854
  34        4PY         0.14169   0.00399  -0.32039  -0.62202  -0.12512
  35        4PZ         0.20188  -0.01085  -0.44682   1.02449  -0.18278
  36        5S         -6.11560   0.09214  13.12412  -5.19697  16.84074
  37        5PX         0.44976  -0.01390  -0.99463  -0.11651   0.56442
  38        5PY        -2.32453   0.08428   4.93760  -3.64434   0.72131
  39        5PZ        -1.30369   0.02353   2.82571  -1.05069   3.72212
  40        6D 0        0.12383  -0.00060  -0.25709   0.07175  -0.11105
  41        6D+1        0.20197  -0.01579  -0.45409   0.50967  -0.02670
  42        6D-1       -0.01407   0.00605   0.04857  -0.38186  -0.01127
  43        6D+2       -0.06117   0.00144   0.13960  -0.19247  -0.34332
  44        6D-2       -0.17800   1.11308  -0.12376   0.03952   0.01394
  45 3   H  1S         -0.05711  -0.00231   0.12320   0.27538  -0.11765
  46        2S          0.22456  -0.00686  -0.48535   0.23113  -0.22221
  47        3S         -0.84308   0.02510   1.77989  -1.47400   0.92471
  48        4S         -2.01743   0.08774   4.37692  -2.95352  -0.81379
  49        5PX        -0.15844   0.00675  -0.10852  -0.24488   0.44842
  50        5PY         0.02997   0.00095  -0.05233   0.04448   0.55896
  51        5PZ         0.09039  -0.00035  -0.19315   0.05507  -0.10301
  52 4   H  1S         -0.07958   0.00233   0.17432   0.00746   0.12000
  53        2S          0.01874   0.00530  -0.02465  -0.36136  -0.01319
  54        3S          0.27736  -0.02887  -0.57854   1.97662   1.32040
  55        4S          1.54536  -0.07394  -3.29908   3.60644   0.59571
  56        5PX         0.08957   0.00015   0.34264   0.13905   0.06222
  57        5PY        -0.00827   0.00136   0.02171  -0.08745   0.07141
  58        5PZ         0.06096  -0.00422  -0.15439  -0.10253  -0.40969
  59 5   H  1S          0.05933   0.00001  -0.12608  -0.05435  -0.18722
  60        2S         -0.40755   0.00530   0.89032  -0.16043   0.46828
  61        3S          0.83790  -0.01765  -1.79479   0.88039  -1.45588
  62        4S          1.48224  -0.04778  -3.11030   2.30472  -0.34325
  63        5PX         0.06121  -0.21554  -0.02706   0.05938  -0.07890
  64        5PY         0.06000   0.00037  -0.12631   0.14494   0.37895
  65        5PZ        -0.07133  -0.00223   0.16029   0.13439   0.14020
  66 6   H  1S         -0.03666   0.00042   0.07733   0.06226  -0.04556
  67        2S         -0.02583   0.00198   0.03662  -0.34875   0.01444
  68        3S         -0.18092   0.01210   0.36695  -0.49176  -0.53861
  69        4S         -1.00238   0.05214   2.11987  -2.26352  -0.02898
  70        5PX         0.02428   0.20993  -0.16352   0.23303  -0.05173
  71        5PY        -0.05984  -0.00034   0.11357  -0.00582  -0.03392
  72        5PZ        -0.01313   0.00137   0.02655  -0.11847  -0.09198
                          46        47        48        49        50
     Eigenvalues --     0.00000   0.00000   0.00000   0.00000   0.00000
   1 1   C  1S         -0.03412  -0.12433   0.06811   0.02207  -0.05173
   2        2S          0.04149   0.12293  -0.06462   0.00581   0.09986
   3        2PX        -0.06423   0.08088  -0.01338  -0.13863   0.05457
   4        2PY         0.05528  -0.05413  -0.03615  -0.05082   0.02530
   5        2PZ         0.00683   0.00000  -0.08337   0.06796   0.01168
   6        3S         -0.07005   0.07836  -0.15699  -0.09214  -0.40550
   7        3PX        -0.03530   0.04988  -0.13260  -0.04188   0.01506
   8        3PY         0.03797   0.09254  -0.07016  -0.57748   0.13130
   9        3PZ        -0.19132  -0.21987   0.07476  -0.59884   0.52838
  10        4S         -0.63983  -1.68268   1.10536   1.29695   1.00844
  11        4PX        -0.07521  -0.02687  -0.12411  -0.01694  -0.02092
  12        4PY         0.34758  -0.03762   0.58034  -0.33374  -0.12938
  13        4PZ         0.76066   0.67982  -0.39315  -0.53491  -0.05592
  14        5S          5.81890  18.47003   3.55481  -1.44409  -9.12629
  15        5PX        -0.53184   0.03690  -0.47886  -0.23750   0.03402
  16        5PY        -0.28902  -1.77273  -3.58634   2.73789   3.93887
  17        5PZ        -2.27474  -3.74528  -1.24807   0.71315   1.81745
  18        6D 0        0.21377   0.11846   0.06056   0.02773  -0.61270
  19        6D+1       -0.23697  -0.29318  -0.09086   0.07829  -0.02319
  20        6D-1        0.03088  -0.26298   0.04285  -0.45101   0.73848
  21        6D+2        0.34276   0.64719  -0.27777   0.31903   0.18255
  22        6D-2       -0.00371   0.01679   0.01817   0.02878   0.00567
  23 2   C  1S         -0.04693   0.15585  -0.13748   0.06860  -0.34442
  24        2S          0.08996  -0.14165   0.15875  -0.04470   0.29391
  25        2PX        -0.12601  -0.31470   0.05128   0.10771  -0.03449
  26        2PY         0.06501   0.08091  -0.19518   0.30370   0.08481
  27        2PZ         0.06513   0.29173  -0.08842   0.30442  -0.00147
  28        3S         -0.34700  -0.14828  -0.07129   0.03083   0.52015
  29        3PX         0.07509   0.17664   0.00443  -0.05565   0.06538
  30        3PY        -0.21595  -0.01527   0.30674  -0.76844   0.13805
  31        3PZ        -0.15038  -0.71271   0.24097  -0.39859   0.60935
  32        4S          0.95060   1.90036  -0.66628  -1.43430  -0.68963
  33        4PX        -0.05234   0.01799  -0.02808  -0.08102  -0.01998
  34        4PY        -0.19439   0.01471  -0.04004  -0.11497  -0.03640
  35        4PZ         0.49646   1.27054  -0.72107  -0.83072  -0.96678
  36        5S         -7.61179 -19.08203  -3.62184   2.44706  10.96320
  37        5PX         0.54895  -0.13509   0.53227   0.27565  -0.04419
  38        5PY        -0.59611   1.71515   1.91806  -2.43388  -4.35160
  39        5PZ        -1.50534  -3.95471  -0.47927   0.86898   2.59398
  40        6D 0        0.13313   0.04964   0.06915  -0.37776   0.70943
  41        6D+1       -0.03813  -0.33884   0.06535   0.26195  -0.14007
  42        6D-1        0.25691  -0.06504  -0.43915   0.77400   0.22751
  43        6D+2        0.78951  -0.69691  -0.32376  -0.24931  -0.05093
  44        6D-2       -0.00561   0.00857  -0.01466   0.02901  -0.00760
  45 3   H  1S          0.00272   0.08258   0.07633   0.26050  -0.38594
  46        2S          0.15549   0.58330  -0.37612   0.52429   0.05654
  47        3S         -0.66410  -0.77473   0.12646  -0.43283  -0.81398
  48        4S          1.37622   0.40905   3.32051  -2.58682  -2.10812
  49        5PX         0.31438  -0.02748   0.36475   0.11436  -0.00644
  50        5PY         0.03437  -0.14086  -0.21818  -0.53677   0.13808
  51        5PZ        -0.10455   0.15161   0.15581  -0.50731   0.04866
  52 4   H  1S          0.08765   0.10020  -0.20068   0.15217   0.07636
  53        2S          0.22086   0.52852   0.26285  -0.16634  -0.10985
  54        3S         -0.10942  -1.76936  -0.76973  -0.45617   0.71627
  55        4S         -0.10702  -1.29355  -3.06838   2.18132   2.33455
  56        5PX         0.36952   0.07398   0.48724   0.29258   0.01950
  57        5PY         0.04564  -0.03814   0.06751  -0.07538  -0.02343
  58        5PZ        -0.40202  -0.31484   0.18475   0.32026  -0.00547
  59 5   H  1S          0.13868  -0.08123  -0.16103   0.04651   0.06135
  60        2S          0.24271  -0.41540  -0.08787   0.53225  -0.12702
  61        3S          0.50738   0.71457  -0.35921   0.06924   0.42702
  62        4S          0.84029  -0.10668  -0.78611   2.02564   1.96806
  63        5PX        -0.04213  -0.05318  -0.03031  -0.00186  -0.01257
  64        5PY        -0.14122   0.24897  -0.17818  -0.26407   0.14517
  65        5PZ         0.20352  -0.43469  -0.22966   0.28443   0.24307
  66 6   H  1S         -0.12554  -0.02054   0.15837  -0.01701  -0.07028
  67        2S          0.18251  -0.52172  -0.02568  -0.67507   0.25946
  68        3S         -0.19633   1.55134   0.18591  -0.00542  -1.77201
  69        4S         -0.31859   1.64632   0.94165  -2.18166  -3.42481
  70        5PX        -0.07239   0.02247  -0.10329   0.15281  -0.04727
  71        5PY        -0.06633  -0.11766   0.13583  -0.34132  -0.13058
  72        5PZ         0.10643  -0.17736   0.04788  -0.16989   0.16344
                          51        52        53        54        55
     Eigenvalues --     0.00000   0.00000   0.00000   0.00000   0.00000
   1 1   C  1S         -0.04472  -0.13745  -0.04620  -0.13444  -0.01011
   2        2S          0.02593   0.19620   0.09158   0.11315   0.03029
   3        2PX        -0.41046  -0.14757  -0.10635  -0.05997   0.10532
   4        2PY        -0.16180   0.05552  -0.26668  -0.00508  -0.24401
   5        2PZ        -0.12431   0.04151   0.01098   0.08119  -0.02843
   6        3S         -0.02409  -0.41390  -0.34580  -0.07562  -0.18567
   7        3PX         0.18896   0.05946   0.04480   0.13239   0.08246
   8        3PY         0.78070  -0.53140   0.02802  -0.31415   0.36784
   9        3PZ         0.47625   0.68821  -0.31459  -0.05691   0.19179
  10        4S          1.17392  -1.26531   1.89143   1.04453   0.52191
  11        4PX         0.04556  -0.08258  -0.02901  -0.11080   0.28221
  12        4PY        -0.15598  -0.90513   0.42822  -0.65747   0.53171
  13        4PZ        -1.20625   0.17336   0.63622  -0.42491  -0.33554
  14        5S         -4.11211  -1.51346  -7.92166   3.61170  -1.92686
  15        5PX         0.05911   0.16961   0.18962   0.04401  -0.70265
  16        5PY        -9.12883  -2.55034   4.62071   1.58161   0.75278
  17        5PZ         1.68401  -1.16957   0.58986   0.44732  -0.91340
  18        6D 0       -0.41657  -0.55698   0.34764   0.51160  -0.25255
  19        6D+1        0.22773  -0.16766   0.01205   0.25741   0.45720
  20        6D-1        0.41800  -0.38078   0.30083   0.27557  -0.03849
  21        6D+2        0.05520  -0.02236   0.08361   0.02411  -0.00619
  22        6D-2       -0.02406  -0.02083  -0.05545   0.02055   0.07403
  23 2   C  1S         -0.10248   0.23975   0.10100  -0.07083   0.16753
  24        2S          0.05334  -0.36205  -0.01796   0.16201  -0.24423
  25        2PX         0.20056   0.00324  -0.01567  -0.13168  -0.15936
  26        2PY        -0.14477   0.02725  -0.09416  -0.47741   0.08811
  27        2PZ         0.02828  -0.31906   0.11210  -0.21150  -0.10673
  28        3S          0.47523   0.45202  -0.48142  -0.42435   0.40251
  29        3PX        -0.16228  -0.17783  -0.10790   0.18862   0.60953
  30        3PY        -0.07043  -0.61624   0.37693   0.19037  -0.42198
  31        3PZ         0.23834   0.74388  -0.42071   0.22232   0.16207
  32        4S         -1.86020   0.43846   0.87581  -1.41259  -0.86562
  33        4PX        -0.05746   0.20704   0.14398  -0.06613  -0.62369
  34        4PY         0.24783   0.97031   0.19896  -0.21309  -0.10281
  35        4PZ        -0.79142   1.08529  -0.09402  -0.17739  -0.08244
  36        5S          5.32181  -0.26790   2.07470  -1.37330   0.06419
  37        5PX        -0.02276  -0.16495  -0.21843  -0.10305   0.56545
  38        5PY         8.38641   2.12335  -8.34333   0.53833  -2.16464
  39        5PZ         1.23132  -1.95280   1.65594  -0.68680  -0.97139
  40        6D 0        0.10894   0.92475  -0.34692  -0.05145   0.17804
  41        6D+1        0.45726   0.12164   0.19538   0.09608  -0.31387
  42        6D-1        0.03970   0.22862  -0.18504   0.78109  -0.15295
  43        6D+2        0.07077   0.11863  -0.13426   0.17782   0.12124
  44        6D-2        0.04178  -0.00658   0.01626   0.03660   0.02266
  45 3   H  1S         -0.18438   0.01653  -0.00762  -0.49599   0.10746
  46        2S         -0.85989   0.52285  -0.61351   1.08481  -0.79453
  47        3S          2.92162   1.32896  -0.21854  -1.49172   1.11980
  48        4S          4.95962   3.75162  -1.46721  -2.22573   0.56016
  49        5PX        -0.00969   0.07229   0.05825  -0.09302  -0.26544
  50        5PY         0.33934  -0.52785   0.17749  -0.04504   0.10975
  51        5PZ         0.37329  -0.16570  -0.23628  -0.33297   0.01985
  52 4   H  1S         -0.06892   0.24238   0.08498   0.24946  -0.01318
  53        2S          1.23121  -1.17287  -0.43502  -0.99564   0.23693
  54        3S         -3.11429   0.67008   0.86083   0.63793   0.46237
  55        4S         -5.47567  -0.29813   3.87669   0.54120   2.10638
  56        5PX        -0.11875  -0.04391  -0.23007   0.03246   0.14297
  57        5PY         0.21941  -0.33112  -0.19273  -0.27230   0.10208
  58        5PZ        -0.29089   0.36814   0.08251   0.03734  -0.05358
  59 5   H  1S         -0.09099  -0.02105  -0.00202   0.04535  -0.02606
  60        2S          0.51403   0.77762  -0.68133   0.70614   0.32939
  61        3S         -1.94419  -1.40631   1.78668   0.33379   0.11362
  62        4S         -5.23595  -1.84874   8.46575  -1.03423   1.69867
  63        5PX         0.02832   0.00325   0.03486   0.05656  -0.02597
  64        5PY        -0.05819  -0.25356   0.20667  -0.70577  -0.09914
  65        5PZ        -0.18047   0.47128  -0.40341   0.09276   0.13104
  66 6   H  1S          0.06059  -0.20449   0.01073   0.17440   0.01481
  67        2S         -0.37599   0.43171   0.37230  -0.23963  -0.11049
  68        3S          1.90838   0.65489  -1.55792   0.46210  -0.22881
  69        4S          4.85860  -0.19436  -6.43339   0.71343  -3.13323
  70        5PX         0.22538  -0.04059   0.09136   0.25507   0.12766
  71        5PY        -0.01265  -0.14500   0.06051  -0.18312  -0.01094
  72        5PZ         0.04424  -0.00152   0.01956   0.03214  -0.02903
                          56        57        58        59        60
     Eigenvalues --     0.00000   0.00000   0.00000   0.00000   0.00000
   1 1   C  1S         -0.04876   0.01483  -0.05271  -0.03421  -0.02565
   2        2S         -0.00502   0.03711   0.09741   0.01936   0.03497
   3        2PX         0.03684   0.06375  -0.27758   0.17641   0.27359
   4        2PY         0.15566  -0.44249   0.09143  -0.17522   0.08261
   5        2PZ         0.08169  -0.07445  -0.04369  -0.14252   0.07936
   6        3S          0.21336  -0.42452  -0.05997  -0.03919  -0.02036
   7        3PX        -0.00938  -0.04763  -0.16649  -0.21847  -0.54271
   8        3PY        -0.42461   0.40522  -0.10179   0.43332  -0.29479
   9        3PZ        -0.12317   0.09496   0.16466   0.07970  -0.16268
  10        4S          0.04927  -0.39766  -1.32167   0.83983  -0.49415
  11        4PX         0.07806   0.06133   1.40615   0.04151   0.79213
  12        4PY        -1.00507   1.34660  -0.22738  -0.00211  -1.79966
  13        4PZ        -0.55892   0.28571   1.25576   0.41121   0.66149
  14        5S         -9.65981   6.39929   2.97847   1.01727  -5.02989
  15        5PX        -0.16961   0.04825  -1.26600  -0.04156  -0.59804
  16        5PY        -1.66353   0.64511  -0.94668  -0.31471   0.83931
  17        5PZ         3.99171   0.47297  -0.42356  -1.07301   1.73562
  18        6D 0        0.07340  -0.13670  -0.11189  -0.23985  -0.08903
  19        6D+1        0.09724  -0.07994  -0.10195  -0.08355  -0.23204
  20        6D-1       -0.17130   0.01952   0.08537   0.46238  -0.45816
  21        6D+2        0.02299   0.18990  -0.01940  -0.26963   0.20324
  22        6D-2        0.03557  -0.00911  -0.00512   0.00130  -0.01539
  23 2   C  1S          0.35614  -0.22574   0.03999   0.17879  -0.47339
  24        2S         -0.38520   0.23983  -0.03521  -0.24471   0.37569
  25        2PX         0.03313   0.09563   0.26709  -0.00353   0.06331
  26        2PY        -0.08397  -0.14098  -0.25671  -0.19962  -0.19769
  27        2PZ        -0.22830  -0.24030   0.23566  -0.39613  -0.36282
  28        3S         -0.01259  -0.16399  -0.13374   0.71986   0.64053
  29        3PX         0.08488  -0.16105   0.17724  -0.07705  -0.09867
  30        3PY         0.00239  -0.56589   0.12842   0.34922   0.97639
  31        3PZ        -0.64846   0.54929   0.11028   0.12953   0.56780
  32        4S          1.85395   1.07214   1.47359  -2.66293   0.18580
  33        4PX        -0.17503   0.00690  -1.04536   0.12194  -0.33996
  34        4PY         1.32795  -1.39411   0.00123   0.08591   2.43475
  35        4PZ        -0.52567  -0.29029   1.25430   1.30849  -0.51513
  36        5S          8.48714  -8.04047  -2.66350  -0.28474   5.25975
  37        5PX         0.17275  -0.02348   0.97553  -0.02262   0.34905
  38        5PY         1.51677   0.83501   1.05138   0.62911  -2.24715
  39        5PZ         4.40437   1.33458  -0.61587  -0.64685   1.99467
  40        6D 0       -0.19923   0.36113   0.13881  -0.07873   0.08111
  41        6D+1       -0.05630  -0.01496  -0.29978   0.01001  -0.05375
  42        6D-1       -0.11264   0.08507   0.23352   0.27650  -0.71810
  43        6D+2       -0.37307   0.06193  -0.01375   0.30698  -0.07473
  44        6D-2       -0.00330  -0.02646  -0.04779   0.01770   0.02351
  45 3   H  1S         -0.13213  -0.19125   0.03391   0.21951   0.08439
  46        2S          0.84088   0.28363   0.17160  -1.14130   0.67454
  47        3S          0.14552  -1.92628  -0.59736  -0.04638   0.74330
  48        4S         -0.39245  -2.63050   0.88035   0.81570  -1.31398
  49        5PX        -0.08361  -0.02194  -0.13239   0.05913   0.02704
  50        5PY        -0.48875  -0.06407   0.12263   0.39646  -0.28403
  51        5PZ        -0.00428  -0.41157  -0.01943   0.32555  -0.22207
  52 4   H  1S          0.10565  -0.21712   0.05323  -0.00988  -0.05074
  53        2S         -0.27817   1.43614  -0.21331  -0.11036  -0.46665
  54        3S         -1.04844  -1.02472  -0.36993  -0.31810  -0.82446
  55        4S         -2.17049  -1.10483  -1.38467   0.25329   0.30637
  56        5PX         0.10321  -0.08335  -0.17706   0.07368  -0.04090
  57        5PY        -0.27337   0.18805  -0.09427   0.24893  -0.05927
  58        5PZ         0.38310  -0.32657   0.07528   0.14886  -0.13470
  59 5   H  1S          0.06492  -0.12709  -0.04738  -0.00916   0.11235
  60        2S         -1.52652   1.12600   0.55254   0.92276  -2.48566
  61        3S         -0.75271   0.26453  -0.16417   0.20725   0.79300
  62        4S          1.12552   1.72934  -0.75254  -1.50863   2.39484
  63        5PX         0.03150   0.13124   0.00221  -0.05404   0.07352
  64        5PY         0.78930  -0.29933  -0.11044  -0.01714   0.46809
  65        5PZ        -0.42710   0.50624  -0.00577  -0.26174  -0.37450
  66 6   H  1S         -0.13253   0.15651  -0.14801   0.23926   0.39364
  67        2S         -0.38786  -1.06014   0.13753   0.50560   1.20477
  68        3S          0.16993   0.47487   0.49894   1.04192  -0.06074
  69        4S          2.92842   4.33405   1.11849  -0.21412  -1.76355
  70        5PX         0.03137  -0.01127  -0.24746   0.03973   0.19015
  71        5PY        -0.43891  -0.20528   0.12795   0.23834   0.24914
  72        5PZ        -0.15064  -0.10299  -0.03120   0.03866   0.30751
                          61        62        63        64        65
     Eigenvalues --     0.00000   0.00000   0.00000   0.00000   0.00000
   1 1   C  1S          0.07300   0.01059   0.12919  -0.29278  -0.18757
   2        2S          0.00292  -0.13827  -0.18232   0.34260   0.23272
   3        2PX         0.50347   0.43618   0.18928  -0.10078   0.18253
   4        2PY        -0.18079   0.10768   0.28577  -0.42277  -0.20871
   5        2PZ         0.33651  -0.15405   0.00628   0.63604  -0.02112
   6        3S         -0.30098   0.47812   0.47511  -0.30292  -0.05747
   7        3PX        -0.72447  -0.82045  -0.08787   0.00262  -0.06379
   8        3PY         1.15399  -0.59020  -0.41161   0.24371  -0.03524
   9        3PZ        -0.83181   0.48158   0.03046  -0.87966   0.26059
  10        4S          1.14042  -0.60983  -3.35772   2.24984   1.80093
  11        4PX         0.60936   0.97687  -0.20214   0.28523  -0.38803
  12        4PY        -0.39934   1.79976  -0.52542  -1.45314  -0.18107
  13        4PZ        -0.05026  -0.53605   0.79891  -0.85387   0.35927
  14        5S          2.17141  -0.85169   6.04312   3.55595  -4.78938
  15        5PX        -0.38374  -0.65926   0.15641  -0.23550   0.30350
  16        5PY        -2.86075   4.61051  -0.46595   0.32194   1.17998
  17        5PZ        -2.15355   0.46599  -0.80413  -1.26829   1.41961
  18        6D 0        0.29754  -0.11551  -0.23266   0.43251  -0.11923
  19        6D+1       -0.29448  -0.33457   0.02289  -0.02316  -0.00604
  20        6D-1        0.66485  -0.18052   0.13362  -0.42914  -0.39391
  21        6D+2        0.09433  -0.13747   0.06107   0.00117  -0.14953
  22        6D-2       -0.00051  -0.01081   0.00698  -0.01603   0.00946
  23 2   C  1S          0.43315  -0.07758  -1.01723  -0.74009  -0.07292
  24        2S         -0.50077   0.17761   1.10716   0.89572  -0.16654
  25        2PX         0.17215   0.15913   0.00931  -0.00077   0.05793
  26        2PY        -0.03816   0.24006  -0.11133   0.24228  -0.39122
  27        2PZ         0.07352   0.05815   0.07695  -0.19858   0.52412
  28        3S          0.16173  -0.42770  -0.56474  -0.73383   1.17923
  29        3PX        -0.25824  -0.20685  -0.02739   0.04789  -0.12655
  30        3PY        -0.89878  -0.09662  -0.78445  -0.27043   0.36160
  31        3PZ        -0.66642  -0.00272  -0.07076  -0.40324  -0.80793
  32        4S          0.06055  -0.23929   3.13978  -1.61174  -0.60973
  33        4PX        -0.24051  -0.48205   0.07371  -0.16216   0.27750
  34        4PY        -0.64527  -1.50812   0.40072   1.16001   0.36745
  35        4PZ        -0.89241   0.73034   1.28074  -0.62480  -0.11725
  36        5S         -4.98499   1.92217  -6.19538  -3.61751   4.89605
  37        5PX         0.31318   0.45680  -0.03325   0.14408  -0.13709
  38        5PY         3.90783  -3.45970  -0.90961   0.11975   0.20765
  39        5PZ        -1.18199  -0.51940  -1.41463  -1.07000   0.97057
  40        6D 0       -0.16496  -0.06373  -0.04354  -0.28054  -0.08935
  41        6D+1       -0.00245   0.01819   0.01053  -0.02945   0.04077
  42        6D-1        0.73088  -0.15774   0.69660  -0.31305  -0.37872
  43        6D+2       -0.29527   0.17403  -0.11158   0.05215  -0.28403
  44        6D-2        0.02261   0.07179  -0.00596   0.00390   0.02329
  45 3   H  1S          0.26497  -0.44083   0.31407   0.36160   0.00951
  46        2S         -1.57491   0.75934   0.00167   0.25047   0.29100
  47        3S          2.74300  -2.62095   1.22388   0.12502  -1.88577
  48        4S          1.74187  -2.61034  -0.74689   0.17183  -0.03247
  49        5PX         0.08183   0.08320   0.03733  -0.03482   0.07586
  50        5PY         0.29441  -0.07496  -0.11882  -0.21825   0.17735
  51        5PZ         0.11788   0.07809  -0.03934  -0.12844   0.00537
  52 4   H  1S          0.17703  -0.15041  -0.05278   0.49472   0.30838
  53        2S          0.89696  -0.15310   0.02354  -1.55911  -1.47103
  54        3S         -1.23389   2.28148  -0.52097   0.31605   1.00297
  55        4S          0.22516   3.32103  -0.60047   0.22585   0.44046
  56        5PX         0.09113   0.06357   0.07112  -0.11629   0.13661
  57        5PY         0.51571  -0.33807   0.15654  -0.16767  -0.41963
  58        5PZ        -0.22278   0.23383   0.04107  -0.05701   0.19263
  59 5   H  1S          0.09872  -0.05567  -0.21883  -0.00216  -0.06962
  60        2S          0.42460   0.72545   1.01476  -0.23765  -0.98242
  61        3S         -0.61718   0.84945  -0.91069  -0.28733   0.04962
  62        4S         -3.18715   1.51941   2.70609  -0.59591  -1.05563
  63        5PX         0.11705   0.06189   0.05620  -0.03806  -0.09822
  64        5PY        -0.18157  -0.21530  -0.37881   0.02108   0.57422
  65        5PZ         0.12431   0.07388   0.15590  -0.00039  -0.30706
  66 6   H  1S         -0.28938   0.16281   0.09653  -0.19717   0.04887
  67        2S         -1.73097  -0.30013  -1.43065   0.59509  -0.80061
  68        3S          0.92031  -0.61819   1.08864   0.52972   0.99977
  69        4S          2.79762  -2.95253  -1.46143  -0.12308   0.45861
  70        5PX         0.23604   0.43251   0.02838  -0.02546   0.02780
  71        5PY        -0.84771   0.38856  -0.22978   0.06526   0.04145
  72        5PZ        -0.32934  -0.03038  -0.29328   0.04268  -0.11120
                          66        67        68        69        70
     Eigenvalues --     0.00000   0.00000   0.00000   0.00000   0.00000
   1 1   C  1S         -0.19077   0.11210  -0.81907   0.77021  -1.53597
   2        2S          0.40025   0.07175   0.67096  -0.76194   1.77798
   3        2PX        -0.00632   0.04922  -0.04450  -0.01153   0.06427
   4        2PY         0.39214  -0.07354  -0.50632  -0.07028   0.25379
   5        2PZ         0.11916  -0.98145  -0.16167   0.63122   0.18814
   6        3S         -0.94865  -0.79587   1.10801  -0.05149  -1.14940
   7        3PX         0.08649  -0.07133   0.06626   0.06827  -0.03720
   8        3PY         0.10534  -0.14588   2.21486   0.42326  -0.67940
   9        3PZ        -0.59864   3.71121   0.91020  -0.49827  -0.14365
  10        4S          1.55446   0.52411  -3.29647  -1.86031  -0.04050
  11        4PX        -0.02367   0.08532  -0.07802  -0.19966  -0.07902
  12        4PY         2.12083  -0.47621   0.91615   0.91994   0.16000
  13        4PZ        -0.62645  -1.11304   0.62419   1.10809   0.03279
  14        5S          1.74578   4.04787   1.37315   5.62996   1.60239
  15        5PX        -0.01227  -0.05503   0.06423   0.12830   0.06757
  16        5PY        -1.14933   2.04857  -0.51673  -1.02012  -0.11886
  17        5PZ        -0.75780  -1.50693  -0.96904  -1.07510   0.27392
  18        6D 0        0.07232  -0.99001  -0.29104  -0.09986  -0.21154
  19        6D+1       -0.01125  -0.02268  -0.00342   0.02204   0.00962
  20        6D-1        0.21767  -0.30835   0.76074   0.03698  -0.11444
  21        6D+2        0.21804  -0.41702  -0.15561   0.13410   0.20815
  22        6D-2       -0.01065   0.00026  -0.00804  -0.00067   0.00422
  23 2   C  1S         -0.75677   0.12943  -0.16438   0.22328   0.33758
  24        2S          0.76418  -0.23773   0.19432  -0.18393  -0.31853
  25        2PX        -0.05866   0.00963   0.00128   0.02734   0.02763
  26        2PY         0.07247  -0.03729  -0.05652  -0.11379  -0.12122
  27        2PZ        -0.18866  -0.61364   0.04883  -0.33163  -0.29990
  28        3S          0.01478   0.45506  -0.11199  -0.40999  -0.23213
  29        3PX         0.00939  -0.03794   0.00676  -0.00461  -0.03174
  30        3PY        -0.34822   0.21002   0.17309   0.62941   0.39750
  31        3PZ         0.22440   3.12863   0.51217   0.80298   0.94552
  32        4S         -1.34885   0.38594   2.10016   1.21002   0.24234
  33        4PX        -0.04833  -0.05126   0.04089   0.12966   0.05545
  34        4PY        -1.32990  -0.33810  -1.01953  -1.36044  -0.50346
  35        4PZ        -0.62498  -0.98928   0.73866   0.86982  -0.17825
  36        5S         -1.48141  -4.89438  -1.76379  -4.97256  -1.34094
  37        5PX         0.02094   0.03444  -0.03289  -0.04252  -0.02183
  38        5PY         0.95820  -1.76046   0.28124  -0.29340  -0.91399
  39        5PZ        -0.51905  -1.26847  -0.48829  -0.95891   0.27146
  40        6D 0       -0.09967   1.07733   0.20864   0.10460   0.26927
  41        6D+1       -0.03466   0.02316  -0.01873  -0.01819   0.01142
  42        6D-1        0.22199  -0.11481  -0.12584  -0.26220  -0.02328
  43        6D+2        0.04043   0.36838   0.03653   0.09947   0.12710
  44        6D-2       -0.02629  -0.04393   0.02551   0.02309  -0.00493
  45 3   H  1S         -0.02250   0.20939   0.12720  -0.01512  -0.13341
  46        2S         -0.00359  -0.77643  -2.77685  -0.31647   1.14753
  47        3S         -1.55843   0.72521   1.79750  -0.07993  -0.59265
  48        4S          1.50234  -1.63440   0.34337   0.74373  -0.16780
  49        5PX        -0.02175   0.00467   0.01945   0.02760   0.01237
  50        5PY         0.11731   0.34850   0.79261  -0.02612  -0.38112
  51        5PZ         0.09939   0.15497   0.54713   0.00270  -0.25557
  52 4   H  1S          0.00795   0.04922   0.19377  -0.06645  -0.22431
  53        2S          1.85574  -1.56575   1.19110   1.20286   0.60417
  54        3S          0.08610   1.01031   0.77875  -0.99835  -1.01209
  55        4S         -0.78565   1.92214  -0.46225  -1.48823  -0.54752
  56        5PX        -0.09018  -0.01598  -0.00980   0.03569   0.03191
  57        5PY         0.33518  -0.71076   0.31487  -0.06752   0.36580
  58        5PZ        -0.01658   0.36099  -0.28775  -0.21899   0.00569
  59 5   H  1S         -0.00289   0.09421  -0.00297   0.04573   0.28180
  60        2S          0.92976   0.24995   0.16411  -0.08242  -0.30600
  61        3S         -0.30362   0.45179   0.16097   1.71276   1.10922
  62        4S         -0.48449   0.93790  -0.25119   0.10561   1.05919
  63        5PX         0.16786   0.19146  -0.11269  -0.17518   0.00204
  64        5PY        -0.20852  -0.21367  -0.03307  -0.01627  -0.07566
  65        5PZ        -0.00151   0.18741  -0.06245  -0.04126   0.17954
  66 6   H  1S         -0.11738   0.22760   0.20970   0.28270   0.10612
  67        2S         -0.16258   0.54149  -0.17590  -0.01039   0.02577
  68        3S         -0.45311  -1.43954  -0.60783  -0.45306  -0.24396
  69        4S          0.19025  -0.89646   0.18802   0.03336  -0.38340
  70        5PX         0.02522  -0.03767   0.01641  -0.05502  -0.02157
  71        5PY        -0.10669   0.50919   0.18172   0.95508   0.49115
  72        5PZ        -0.05878   0.20897  -0.01156   0.07570   0.11909
                          71        72
     Eigenvalues --     0.00000   0.00000
   1 1   C  1S         -0.01704   0.12443
   2        2S         -0.04099  -0.08522
   3        2PX        -0.05745   0.04515
   4        2PY        -0.02101  -0.04998
   5        2PZ         0.17049  -0.22016
   6        3S          0.24628  -0.17221
   7        3PX         0.07600  -0.01378
   8        3PY        -0.33153   0.42753
   9        3PZ        -0.31854   0.52417
  10        4S         -1.37930  -1.41698
  11        4PX        -0.14688  -0.11055
  12        4PY        -0.51436  -0.34435
  13        4PZ         1.11378   0.42817
  14        5S         -0.85817   1.77647
  15        5PX         0.06365   0.05397
  16        5PY         7.09640  -2.93529
  17        5PZ        -2.38206   0.57490
  18        6D 0       -0.03191  -0.15121
  19        6D+1        0.00981   0.00325
  20        6D-1       -0.14440   0.13850
  21        6D+2        0.07477   0.12063
  22        6D-2        0.01564   0.00285
  23 2   C  1S         -0.36284   0.11106
  24        2S          0.40212  -0.07213
  25        2PX         0.01947   0.00675
  26        2PY        -0.10023   0.15667
  27        2PZ         0.00029  -0.25161
  28        3S         -0.14758  -0.01592
  29        3PX         0.06425   0.02338
  30        3PY         0.28564  -0.91169
  31        3PZ        -0.09422   0.52290
  32        4S          1.57880   0.76686
  33        4PX         0.15422   0.11378
  34        4PY        -0.39715   1.24229
  35        4PZ         0.97454   0.69061
  36        5S         -3.24322  -3.09949
  37        5PX        -0.00880  -0.00542
  38        5PY        -3.39060   3.11335
  39        5PZ        -1.21701   0.72148
  40        6D 0       -0.05661   0.25386
  41        6D+1       -0.08550  -0.04401
  42        6D-1        0.01847   0.21340
  43        6D+2       -0.07437  -0.05625
  44        6D-2       -0.07545  -0.00421
  45 3   H  1S         -0.12515  -0.08230
  46        2S          0.88607   0.07540
  47        3S         -1.01308   0.18931
  48        4S         -4.63902   1.33390
  49        5PX         0.00617   0.01824
  50        5PY        -0.18564   0.15766
  51        5PZ        -0.15063   0.01503
  52 4   H  1S         -0.01087  -0.06017
  53        2S         -0.44338   0.81917
  54        3S          1.12950  -1.30494
  55        4S          9.56652  -2.52788
  56        5PX         0.04990   0.03111
  57        5PY        -0.08263   0.06088
  58        5PZ         0.18905  -0.13548
  59 5   H  1S          0.05500   0.41542
  60        2S         -0.38512  -0.38975
  61        3S          1.22152  -0.27868
  62        4S          0.86848  -0.53048
  63        5PX        -0.08950  -0.13598
  64        5PY        -0.01551  -0.22354
  65        5PZ        -0.30548   0.12955
  66 6   H  1S          0.16772   0.28155
  67        2S         -0.29638  -1.85161
  68        3S         -0.19319   5.12953
  69        4S         -2.47883   1.35264
  70        5PX        -0.47532  -0.15640
  71        5PY         0.02618  -0.37572
  72        5PZ        -0.05726  -0.15516
          Condensed to atoms (all electrons):
               1          2          3          4          5          6
     1  C    4.843461   0.604145   0.422358   0.422358  -0.038974  -0.038974
     2  C    0.604145   4.843460  -0.038975  -0.038975   0.422358   0.422358
     3  H    0.422358  -0.038975   0.534116  -0.025964   0.000137   0.001142
     4  H    0.422358  -0.038975  -0.025964   0.534116   0.001142   0.000137
     5  H   -0.038974   0.422358   0.000137   0.001142   0.534117  -0.025965
     6  H   -0.038974   0.422358   0.001142   0.000137  -0.025965   0.534117
 Mulliken charges:
               1
     1  C   -0.214373
     2  C   -0.214371
     3  H    0.107186
     4  H    0.107186
     5  H    0.107186
     6  H    0.107186
 Sum of Mulliken charges =   0.00000
 Mulliken charges with hydrogens summed into heavy atoms:
               1
     1  C   -0.000001
     2  C    0.000001
 Electronic spatial extent (au):  <R**2>=             83.2207
 Charge=              0.0000 electrons
 Dipole moment (field-independent basis, Debye):
    X=              0.0000    Y=              0.0000    Z=              0.0000  Tot=              0.0000
 Quadrupole moment (field-independent basis, Debye-Ang):
   XX=            -15.7991   YY=            -12.4400   ZZ=            -12.3199
   XY=              0.0000   XZ=              0.0000   YZ=              0.0000
 Traceless Quadrupole moment (field-independent basis, Debye-Ang):
   XX=             -2.2794   YY=              1.0796   ZZ=              1.1998
   XY=              0.0000   XZ=              0.0000   YZ=              0.0000
 Octapole moment (field-independent basis, Debye-Ang**2):
  XXX=              0.0000  YYY=              0.0000  ZZZ=              0.0000  XYY=              0.0000
  XXY=              0.0000  XXZ=              0.0000  XZZ=              0.0000  YZZ=              0.0000
  YYZ=              0.0000  XYZ=              0.0000
 Hexadecapole moment (field-independent basis, Debye-Ang**3):
 XXXX=            -19.6988 YYYY=            -27.0197 ZZZZ=            -68.5641 XXXY=              0.0000
 XXXZ=              0.0000 YYYX=              0.0000 YYYZ=              0.0000 ZZZX=              0.0000
 ZZZY=              0.0000 XXYY=             -8.5078 XXZZ=            -15.8446 YYZZ=            -13.2942
 XXYZ=              0.0000 YYXZ=              0.0000 ZZXY=              0.0000
 N-N= 3.335904909485D+01 E-N=-2.480857324025D+02  KE= 7.801950321293D+01
 1\1\GINC-COMPUTE16\SP\CASSCF\6-311++G(d,p)\C2H4\ROOT\09-Apr-2017\0\\# 
 casscf(2,6)/6-311++g** guess=(read) Pop=NaturalOrbital geom=check\\Tit
 le Card Required\\0,1\C,0,0.,0.,-0.0164717667\C,0,0.,0.,1.3164717667\H
 ,0,0.9194399167,0.,-0.5897915263\H,0,-0.9194399167,0.,-0.5897915263\H,
 0,0.9194399167,0.,1.8897915263\H,0,-0.9194399167,0.,1.8897915263\\Vers
 ion=EM64L-G09RevD.01\State=1-AG\HF=-78.0855544\RMSD=0.000e+00\Dipole=0
 .,0.,0.0000003\Quadrupole=0.8026812,-1.6946915,0.8920102,0.,0.,0.\PG=D
 02H [C2"(C1.C1),SG(H4)]\\@


 A MAN SHOULD NEVER BE ASHAMED TO OWN HE HAS BEEN IN THE WRONG
 WHICH IS BUT SAYING IN OTHER WORDS,
 THAT HE IS WISER TODAY THAN HE WAS YESTERDAY.

                          -- JONATHAN SWIFT
 Job cpu time:       0 days  0 hours 25 minutes  7.6 seconds.
 File lengths (MBytes):  RWF=      9 Int=      0 D2E=      0 Chk=      1 Scr=      1
 Normal termination of Gaussian 09 at Sun Apr  9 20:01:16 2017.
