 Entering Gaussian System, Link 0=g09
 Initial command:
 /opt/local/share/g09/l1.exe "./Gau-25796.inp" -scrdir="./"
 Entering Link 1 = /opt/local/share/g09/l1.exe PID=     25797.
  
 Copyright (c) 1988,1990,1992,1993,1995,1998,2003,2009,2013,
            Gaussian, Inc.  All Rights Reserved.
  
 This is part of the Gaussian(R) 09 program.  It is based on
 the Gaussian(R) 03 system (copyright 2003, Gaussian, Inc.),
 the Gaussian(R) 98 system (copyright 1998, Gaussian, Inc.),
 the Gaussian(R) 94 system (copyright 1995, Gaussian, Inc.),
 the Gaussian 92(TM) system (copyright 1992, Gaussian, Inc.),
 the Gaussian 90(TM) system (copyright 1990, Gaussian, Inc.),
 the Gaussian 88(TM) system (copyright 1988, Gaussian, Inc.),
 the Gaussian 86(TM) system (copyright 1986, Carnegie Mellon
 University), and the Gaussian 82(TM) system (copyright 1983,
 Carnegie Mellon University). Gaussian is a federally registered
 trademark of Gaussian, Inc.
  
 This software contains proprietary and confidential information,
 including trade secrets, belonging to Gaussian, Inc.
  
 This software is provided under written license and may be
 used, copied, transmitted, or stored only in accord with that
 written license.
  
 The following legend is applicable only to US Government
 contracts under FAR:
  
                    RESTRICTED RIGHTS LEGEND
  
 Use, reproduction and disclosure by the US Government is
 subject to restrictions as set forth in subparagraphs (a)
 and (c) of the Commercial Computer Software - Restricted
 Rights clause in FAR 52.227-19.
  
 Gaussian, Inc.
 340 Quinnipiac St., Bldg. 40, Wallingford CT 06492
  
  
 ---------------------------------------------------------------
 Warning -- This program may not be used in any manner that
 competes with the business of Gaussian, Inc. or will provide
 assistance to any competitor of Gaussian, Inc.  The licensee
 of this program is prohibited from giving any competitor of
 Gaussian, Inc. access to this program.  By using this program,
 the user acknowledges that Gaussian, Inc. is engaged in the
 business of creating and licensing software in the field of
 computational chemistry and represents and warrants to the
 licensee that it is not a competitor of Gaussian, Inc. and that
 it will not use this program in any manner prohibited above.
 ---------------------------------------------------------------
  

 Cite this work as:
 Gaussian 09, Revision D.01,
 M. J. Frisch, G. W. Trucks, H. B. Schlegel, G. E. Scuseria, 
 M. A. Robb, J. R. Cheeseman, G. Scalmani, V. Barone, B. Mennucci, 
 G. A. Petersson, H. Nakatsuji, M. Caricato, X. Li, H. P. Hratchian, 
 A. F. Izmaylov, J. Bloino, G. Zheng, J. L. Sonnenberg, M. Hada, 
 M. Ehara, K. Toyota, R. Fukuda, J. Hasegawa, M. Ishida, T. Nakajima, 
 Y. Honda, O. Kitao, H. Nakai, T. Vreven, J. A. Montgomery, Jr., 
 J. E. Peralta, F. Ogliaro, M. Bearpark, J. J. Heyd, E. Brothers, 
 K. N. Kudin, V. N. Staroverov, T. Keith, R. Kobayashi, J. Normand, 
 K. Raghavachari, A. Rendell, J. C. Burant, S. S. Iyengar, J. Tomasi, 
 M. Cossi, N. Rega, J. M. Millam, M. Klene, J. E. Knox, J. B. Cross, 
 V. Bakken, C. Adamo, J. Jaramillo, R. Gomperts, R. E. Stratmann, 
 O. Yazyev, A. J. Austin, R. Cammi, C. Pomelli, J. W. Ochterski, 
 R. L. Martin, K. Morokuma, V. G. Zakrzewski, G. A. Voth, 
 P. Salvador, J. J. Dannenberg, S. Dapprich, A. D. Daniels, 
 O. Farkas, J. B. Foresman, J. V. Ortiz, J. Cioslowski, 
 and D. J. Fox, Gaussian, Inc., Wallingford CT, 2013.
 
 ******************************************
 Gaussian 09:  EM64M-G09RevD.01 24-Apr-2013
                 6-May-2019 
 ******************************************
 %nprocshared=2
 Will use up to    2 processors via shared memory.
 %mem=2GB
 %chk=formamide_monomer_tdc_calc.chk
 --------------------------------------------------------------------
 # b3lyp/6-31g* freq=(Raman) iop(7/33=1) nosymm geom=check guess=read
 --------------------------------------------------------------------
 1/10=4,29=2,30=1,38=1/1,3;
 2/12=2,15=1,40=1/2;
 3/5=1,6=6,7=1,11=2,14=-4,16=1,25=1,30=1,71=2,74=-5,116=-2,140=1/1,2,3;
 4/5=1/1;
 5/5=2,38=6,98=1/2;
 8/6=4,10=90,11=11/1;
 10/13=10,15=4,31=1/2;
 11/6=3,8=1,9=11,15=111,16=1,31=1/1,2,10;
 10/6=1,31=1/2;
 6/7=2,8=2,9=2,10=2,18=1,28=1/1;
 7/8=1,10=1,25=1,30=1,33=1/1,2,3,16;
 1/10=4,30=1/3;
 99//99;
 ------------------
 Formamide TDC Calc
 ------------------
 Structure from the checkpoint file:  "formamide_monomer_tdc_calc.chk"
 Charge =  0 Multiplicity = 1
 Redundant internal coordinates found in file.
 C,0,0.0053092853,0.,0.084233282
 O,0,-0.0323557434,0.,1.2984318597
 N,0,1.1461737681,0.,-0.6524686729
 H,0,-0.9077720662,0.,-0.538621207
 H,0,1.1258627752,0.,-1.6599788536
 H,0,2.0402810558,0.,-0.1815964082
 Recover connectivity data from disk.

 GradGradGradGradGradGradGradGradGradGradGradGradGradGradGradGradGradGrad
 Berny optimization.
 Initialization pass.
                           ----------------------------
                           !    Initial Parameters    !
                           ! (Angstroms and Degrees)  !
 --------------------------                            --------------------------
 ! Name  Definition              Value          Derivative Info.                !
 --------------------------------------------------------------------------------
 ! R1    R(1,2)                  1.2148         calculate D2E/DX2 analytically  !
 ! R2    R(1,3)                  1.3581         calculate D2E/DX2 analytically  !
 ! R3    R(1,4)                  1.1053         calculate D2E/DX2 analytically  !
 ! R4    R(3,5)                  1.0077         calculate D2E/DX2 analytically  !
 ! R5    R(3,6)                  1.0105         calculate D2E/DX2 analytically  !
 ! A1    A(2,1,3)              124.6287         calculate D2E/DX2 analytically  !
 ! A2    A(2,1,4)              122.5229         calculate D2E/DX2 analytically  !
 ! A3    A(3,1,4)              112.8484         calculate D2E/DX2 analytically  !
 ! A4    A(1,3,5)              121.697          calculate D2E/DX2 analytically  !
 ! A5    A(1,3,6)              119.375          calculate D2E/DX2 analytically  !
 ! A6    A(5,3,6)              118.928          calculate D2E/DX2 analytically  !
 ! D1    D(2,1,3,5)            180.0            calculate D2E/DX2 analytically  !
 ! D2    D(2,1,3,6)              0.0            calculate D2E/DX2 analytically  !
 ! D3    D(4,1,3,5)              0.0            calculate D2E/DX2 analytically  !
 ! D4    D(4,1,3,6)            180.0            calculate D2E/DX2 analytically  !
 --------------------------------------------------------------------------------
 Trust Radius=3.00D-01 FncErr=1.00D-07 GrdErr=1.00D-07
 Number of steps in this run=      2 maximum allowed number of steps=      2.
 GradGradGradGradGradGradGradGradGradGradGradGradGradGradGradGradGradGrad

                          Input orientation:                          
 ---------------------------------------------------------------------
 Center     Atomic      Atomic             Coordinates (Angstroms)
 Number     Number       Type             X           Y           Z
 ---------------------------------------------------------------------
      1          6           0        0.005309    0.000000    0.084233
      2          8           0       -0.032356    0.000000    1.298432
      3          7           0        1.146174    0.000000   -0.652469
      4          1           0       -0.907772    0.000000   -0.538621
      5          1           0        1.125863    0.000000   -1.659979
      6          1           0        2.040281    0.000000   -0.181596
 ---------------------------------------------------------------------
                    Distance matrix (angstroms):
                    1          2          3          4          5
     1  C    0.000000
     2  O    1.214783   0.000000
     3  N    1.358051   2.279242   0.000000
     4  H    1.105290   2.034974   2.057099   0.000000
     5  H    2.073142   3.177053   1.007715   2.322308   0.000000
     6  H    2.052261   2.546823   1.010519   2.969593   1.738325
                    6
     6  H    0.000000
 Symmetry turned off by external request.
 Stoichiometry    CH3NO
 Framework group  CS[SG(CH3NO)]
 Deg. of freedom     9
 Full point group                 CS      NOp   2
 Rotational constants (GHZ):     73.1611553     11.3571867      9.8310601
 Standard basis: 6-31G(d) (6D, 7F)
    51 basis functions,    96 primitive gaussians,    51 cartesian basis functions
    12 alpha electrons       12 beta electrons
       nuclear repulsion energy        71.1559147438 Hartrees.
 NAtoms=    6 NActive=    6 NUniq=    6 SFac= 1.00D+00 NAtFMM=   60 NAOKFM=F Big=F
 Integral buffers will be    131072 words long.
 Raffenetti 2 integral format.
 Two-electron integral symmetry is turned off.
 One-electron integrals computed using PRISM.
 NBasis=    51 RedAO= T EigKep=  5.36D-03  NBF=    51
 NBsUse=    51 1.00D-06 EigRej= -1.00D+00 NBFU=    51
 Initial guess from the checkpoint file:  "formamide_monomer_tdc_calc.chk"
 B after Tr=     0.791685    0.000000    0.310653
         Rot=    0.449931   -0.449931    0.545493   -0.545493 Ang=-126.52 deg.
 Keep R1 ints in memory in canonical form, NReq=1775870.
 Requested convergence on RMS density matrix=1.00D-08 within 128 cycles.
 Requested convergence on MAX density matrix=1.00D-06.
 Requested convergence on             energy=1.00D-06.
 No special actions if energy rises.
 SCF Done:  E(RB3LYP) =  -169.888778928     A.U. after   10 cycles
            NFock= 10  Conv=0.36D-08     -V/T= 2.0089
 DoSCS=F DFT=T ScalE2(SS,OS)=  1.000000  1.000000
 Range of M.O.s used for correlation:     1    51
 NBasis=    51 NAE=    12 NBE=    12 NFC=     0 NFV=     0
 NROrb=     51 NOA=    12 NOB=    12 NVA=    39 NVB=    39
          Differentiating once with respect to electric field.
                with respect to dipole field.
          Electric field/nuclear overlap derivatives assumed to be zero.
 Keep R1 ints in memory in canonical form, NReq=1749063.
          There are     3 degrees of freedom in the 1st order CPHF.  IDoFFX=0 NUNeed=     3.
      3 vectors produced by pass  0 Test12= 1.56D-14 3.33D-08 XBig12= 2.43D+01 2.89D+00.
 AX will form     3 AO Fock derivatives at one time.
      3 vectors produced by pass  1 Test12= 1.56D-14 3.33D-08 XBig12= 8.13D+00 1.55D+00.
      3 vectors produced by pass  2 Test12= 1.56D-14 3.33D-08 XBig12= 9.65D-01 2.77D-01.
      3 vectors produced by pass  3 Test12= 1.56D-14 3.33D-08 XBig12= 5.39D-02 8.85D-02.
      3 vectors produced by pass  4 Test12= 1.56D-14 3.33D-08 XBig12= 1.31D-03 1.54D-02.
      3 vectors produced by pass  5 Test12= 1.56D-14 3.33D-08 XBig12= 1.79D-05 1.30D-03.
      3 vectors produced by pass  6 Test12= 1.56D-14 3.33D-08 XBig12= 3.23D-07 2.23D-04.
      3 vectors produced by pass  7 Test12= 1.56D-14 3.33D-08 XBig12= 6.45D-09 2.12D-05.
      2 vectors produced by pass  8 Test12= 1.56D-14 3.33D-08 XBig12= 8.50D-11 2.84D-06.
      2 vectors produced by pass  9 Test12= 1.56D-14 3.33D-08 XBig12= 5.87D-13 2.05D-07.
 InvSVY:  IOpt=1 It=  1 EMax= 8.88D-16
 Solved reduced A of dimension    28 with     3 vectors.
 End of Minotr F.D. properties file   721 does not exist.
 End of Minotr F.D. properties file   722 does not exist.
 End of Minotr F.D. properties file   788 does not exist.
 Symmetrizing basis deriv contribution to polar:
 IMax=3 JMax=2 DiffMx= 0.00D+00
 G2DrvN: will do     7 centers at a time, making    1 passes.
 PxScal for G2LodP:  IOpCl= 0 ISclPx=1 IMOff=     1 NMtTot=     4 NTT=    1326 ScalPx= 2.15D+00
 Calling FoFCou, ICntrl=  3107 FMM=F I1Cent=   0 AccDes= 0.00D+00.
 End of G2Drv F.D. properties file   721 does not exist.
 End of G2Drv F.D. properties file   722 does not exist.
 End of G2Drv F.D. properties file   788 does not exist.
          IDoAtm=111111
          Differentiating once with respect to electric field.
                with respect to dipole field.
          Differentiating once with respect to nuclear coordinates.
 Keep R1 ints in memory in canonical form, NReq=1749201.
          There are    21 degrees of freedom in the 1st order CPHF.  IDoFFX=5 NUNeed=    21.
 Will reuse    3 saved solutions.
     15 vectors produced by pass  0 Test12= 2.23D-15 4.76D-09 XBig12= 1.91D-01 1.36D-01.
 AX will form    15 AO Fock derivatives at one time.
     15 vectors produced by pass  1 Test12= 2.23D-15 4.76D-09 XBig12= 1.16D-01 1.70D-01.
     15 vectors produced by pass  2 Test12= 2.23D-15 4.76D-09 XBig12= 1.03D-03 7.49D-03.
     15 vectors produced by pass  3 Test12= 2.23D-15 4.76D-09 XBig12= 2.24D-06 3.73D-04.
     15 vectors produced by pass  4 Test12= 2.23D-15 4.76D-09 XBig12= 1.48D-09 9.28D-06.
     11 vectors produced by pass  5 Test12= 2.23D-15 4.76D-09 XBig12= 8.83D-13 2.65D-07.
      1 vectors produced by pass  6 Test12= 2.23D-15 4.76D-09 XBig12= 6.24D-16 6.73D-09.
 InvSVY:  IOpt=1 It=  1 EMax= 1.55D-15
 Solved reduced A of dimension    87 with    15 vectors.
 Isotropic polarizability for W=    0.000000       19.83 Bohr**3.
 End of Minotr F.D. properties file   721 does not exist.
 End of Minotr F.D. properties file   722 does not exist.
 End of Minotr F.D. properties file   788 does not exist.

 **********************************************************************

            Population analysis using the SCF density.

 **********************************************************************

 Alpha  occ. eigenvalues --  -19.11542 -14.36549 -10.28831  -1.03187  -0.90999
 Alpha  occ. eigenvalues --   -0.62769  -0.55813  -0.48099  -0.40895  -0.40130
 Alpha  occ. eigenvalues --   -0.27207  -0.25387
 Alpha virt. eigenvalues --    0.03075   0.07264   0.10849   0.16458   0.26936
 Alpha virt. eigenvalues --    0.34522   0.53515   0.55283   0.64918   0.67884
 Alpha virt. eigenvalues --    0.69755   0.71094   0.84182   0.86197   0.87121
 Alpha virt. eigenvalues --    0.88608   1.00700   1.07567   1.21363   1.29476
 Alpha virt. eigenvalues --    1.37585   1.47411   1.50910   1.68577   1.78069
 Alpha virt. eigenvalues --    1.85179   1.87176   2.03595   2.10421   2.27677
 Alpha virt. eigenvalues --    2.29596   2.48718   2.63230   2.66688   2.91218
 Alpha virt. eigenvalues --    3.01135   3.73625   3.86142   4.17968
          Condensed to atoms (all electrons):
               1          2          3          4          5          6
     1  C    4.423003   0.607002   0.254279   0.363212  -0.005096  -0.003534
     2  O    0.607002   7.976393  -0.088913  -0.056993   0.003392   0.007433
     3  N    0.254279  -0.088913   7.086058  -0.125267   0.287741   0.282854
     4  H    0.363212  -0.056993  -0.125267   0.701602   0.006103   0.007697
     5  H   -0.005096   0.003392   0.287741   0.006103   0.390651  -0.018664
     6  H   -0.003534   0.007433   0.282854   0.007697  -0.018664   0.379798
 Mulliken charges:
               1
     1  C    0.361134
     2  O   -0.448315
     3  N   -0.696754
     4  H    0.103645
     5  H    0.335873
     6  H    0.344416
 Sum of Mulliken charges =   0.00000
 Mulliken charges with hydrogens summed into heavy atoms:
               1
     1  C    0.464779
     2  O   -0.448315
     3  N   -0.016465
 APT charges:
               1
     1  C    1.036771
     2  O   -0.730156
     3  N   -0.680725
     4  H   -0.064993
     5  H    0.218083
     6  H    0.221020
 Sum of APT charges =   0.00000
 APT charges with hydrogens summed into heavy atoms:
               1
     1  C    0.971778
     2  O   -0.730156
     3  N   -0.241621
 Electronic spatial extent (au):  <R**2>=            162.7889
 Charge=              0.0000 electrons
 Dipole moment (field-independent basis, Debye):
    X=              1.4452    Y=              0.0000    Z=             -3.5524  Tot=              3.8351
 Quadrupole moment (field-independent basis, Debye-Ang):
   XX=            -13.4637   YY=            -18.3883   ZZ=            -18.7642
   XY=              0.0000   XZ=             -0.6699   YZ=              0.0000
 Traceless Quadrupole moment (field-independent basis, Debye-Ang):
   XX=              3.4084   YY=             -1.5163   ZZ=             -1.8921
   XY=              0.0000   XZ=             -0.6699   YZ=              0.0000
 Octapole moment (field-independent basis, Debye-Ang**2):
  XXX=            -11.7153  YYY=              0.0000  ZZZ=            -18.2807  XYY=             -8.2686
  XXY=              0.0000  XXZ=             -4.0200  XZZ=             -4.0527  YZZ=              0.0000
  YYZ=             -1.5726  XYZ=              0.0000
 Hexadecapole moment (field-independent basis, Debye-Ang**3):
 XXXX=            -56.3068 YYYY=            -15.5227 ZZZZ=            -89.4416 XXXY=              0.0000
 XXXZ=             13.8667 YYYX=              0.0000 YYYZ=              0.0000 ZZZX=              9.0585
 ZZZY=              0.0000 XXYY=            -17.3308 XXZZ=            -26.1631 YYZZ=            -18.7538
 XXYZ=              0.0000 YYXZ=              6.0071 ZZXY=              0.0000
 N-N= 7.115591474379D+01 E-N=-5.402343018808D+02  KE= 1.683823101595D+02
  Exact polarizability:  22.882   0.000   9.666  -2.819   0.000  26.934
 Approx polarizability:  29.784   0.000  12.926  -6.139   0.000  45.108
 Entering OneElI...
 Calculate overlap and kinetic energy integrals
    NBasis =  51  MinDer = 2  MaxDer = 2
 Requested accuracy = 0.1000D-12
 PrsmSu:  NPrtUS=   2 ThrOK=T IAlg=1 NPAlg=1 LenDen=           0.
 Prism:   IPart=     0 DynPar=F LinDyn=F Incr=           1.
 PRISM was handed   134199028 working-precision words and   171 shell-pairs
 PRISM was handed   134199028 working-precision words and   171 shell-pairs
 IPart=  1 NShTot=          77 NBatch=          26 AvBLen=         3.0
 IPart=  0 NShTot=          94 NBatch=          28 AvBLen=         3.4
 PrSmSu:  NxtVal=              3.
 Entering OneElI...
 Calculate potential energy integrals
    NBasis =  51  MinDer = 2  MaxDer = 2
 Requested accuracy = 0.1000D-12
 PrsmSu:  NPrtUS=   2 ThrOK=T IAlg=1 NPAlg=1 LenDen=           0.
 Prism:   IPart=     0 DynPar=F LinDyn=F Incr=           5.
 PRISM was handed   134201449 working-precision words and   170 shell-pairs
 PRISM was handed   134201449 working-precision words and   170 shell-pairs
 IPart=  1 NShTot=         438 NBatch=          73 AvBLen=         6.0
 IPart=  0 NShTot=         582 NBatch=          97 AvBLen=         6.0
 PrSmSu:  NxtVal=             11.
 Polarizability after L701:
                1             2             3 
      1  0.228821D+02
      2  0.000000D+00  0.966569D+01
      3 -0.281870D+01  0.000000D+00  0.269336D+02
 Dipole Derivatives after L701:
                 1             2             3             4             5 
      1   0.125411D+01  0.000000D+00 -0.418263D+00 -0.568802D+00  0.000000D+00
      2   0.000000D+00  0.321269D+00  0.000000D+00  0.000000D+00 -0.403757D+00
      3  -0.437046D+00  0.000000D+00  0.153494D+01  0.407710D-02  0.000000D+00
                 6             7             8             9            10 
      1   0.271165D+00 -0.849239D+00  0.000000D+00  0.311585D+00 -0.156666D+00
      2   0.000000D+00  0.000000D+00 -0.689577D+00  0.000000D+00  0.000000D+00
      3  -0.121791D+01  0.582294D+00  0.000000D+00 -0.503358D+00 -0.129314D+00
                11            12            13            14            15 
      1   0.000000D+00 -0.154248D+00  0.149876D+00  0.000000D+00 -0.352585D-04
      2   0.576295D-01  0.000000D+00  0.000000D+00  0.359604D+00  0.000000D+00
      3   0.000000D+00 -0.959429D-01 -0.261740D-01  0.000000D+00  0.144770D+00
                16            17            18 
      1   0.170725D+00  0.000000D+00 -0.102036D-01
      2   0.000000D+00  0.354830D+00  0.000000D+00
      3   0.616281D-02  0.000000D+00  0.137503D+00
 Hessian after L701:
                1             2             3             4             5 
      1  0.129361D+02
      2  0.000000D+00  0.232410D+02
      3  0.369552D+01  0.000000D+00  0.211031D+01
      4 -0.127180D+02  0.000000D+00 -0.592631D+00  0.118029D+02
      5  0.000000D+00 -0.135127D+02  0.000000D+00  0.000000D+00  0.135451D+02
      6 -0.427802D+00  0.000000D+00  0.362435D+01  0.126343D+01  0.000000D+00
      7  0.451546D+00  0.000000D+00 -0.427498D+01  0.442200D+00  0.000000D+00
      8  0.000000D+00 -0.701852D+01  0.000000D+00  0.000000D+00 -0.355453D-01
      9 -0.451701D+01  0.000000D+00 -0.362559D+01 -0.734299D+00  0.000000D+00
     10 -0.682643D+00  0.000000D+00  0.110034D+01  0.415254D+00  0.000000D+00
     11  0.000000D+00 -0.266474D+01  0.000000D+00  0.000000D+00  0.118016D+00
     12  0.119018D+01  0.000000D+00 -0.214505D+01  0.194658D+00  0.000000D+00
     13 -0.397493D-01  0.000000D+00  0.476818D-01 -0.356028D-01  0.000000D+00
     14  0.000000D+00 -0.310713D-01  0.000000D+00  0.000000D+00 -0.319269D-01
     15 -0.204474D-01  0.000000D+00  0.399007D-01 -0.529220D-01  0.000000D+00
     16  0.527914D-01  0.000000D+00  0.240666D-01  0.933089D-01  0.000000D+00
     17  0.000000D+00 -0.140163D-01  0.000000D+00  0.000000D+00 -0.829305D-01
     18  0.795668D-01  0.000000D+00 -0.391801D-02 -0.782358D-01  0.000000D+00
                6             7             8             9            10 
      6 -0.371174D+01
      7 -0.789619D+00  0.359298D+01
      8  0.000000D+00  0.000000D+00  0.125005D+02
      9  0.131443D-01  0.386250D+01  0.000000D+00  0.586162D+01
     10  0.220808D+00 -0.589556D+00  0.000000D+00  0.533164D-01  0.680458D+00
     11  0.000000D+00  0.000000D+00  0.325428D+00  0.000000D+00  0.000000D+00
     12 -0.151335D+00 -0.548542D-01  0.000000D+00  0.381049D+00 -0.134279D+01
     13 -0.483431D-01 -0.297330D+01  0.000000D+00  0.284845D-01  0.378187D-01
     14  0.000000D+00  0.000000D+00 -0.285545D+01  0.000000D+00  0.000000D+00
     15  0.213100D+00  0.117020D+00  0.000000D+00 -0.281125D+00 -0.587002D-01
     16 -0.218474D+00 -0.923873D+00  0.000000D+00  0.130701D+01  0.138668D+00
     17  0.000000D+00  0.000000D+00 -0.291640D+01  0.000000D+00  0.000000D+00
     18  0.124796D-01  0.113993D+01  0.000000D+00 -0.234910D+01  0.270253D-01
               11            12            13            14            15 
     11  0.226095D+01
     12  0.000000D+00  0.194384D+01
     13  0.000000D+00 -0.219969D-01  0.299405D+01
     14 -0.224282D-01  0.000000D+00  0.000000D+00  0.289533D+01
     15  0.000000D+00 -0.694651D-02  0.920789D-01  0.000000D+00  0.101854D+00
     16  0.000000D+00  0.348045D-01  0.167768D-01  0.000000D+00 -0.770289D-01
     17 -0.172334D-01  0.000000D+00  0.000000D+00  0.455439D-01  0.000000D+00
     18  0.000000D+00 -0.215556D-01 -0.979052D-01  0.000000D+00 -0.667835D-01
               16            17            18 
     16  0.622328D+00
     17  0.000000D+00  0.298503D+01
     18 -0.107038D+01  0.000000D+00  0.242887D+01
 ICntrl=    100127.
 Calling FoFJK, ICntrl=    100127 FMM=F ISym2X=0 I1Cent= 0 IOpClX= 0 NMat=1 NMatS=1 NMatT=0.
 FoFJK:  IHMeth= 1 ICntrl=  100127 DoSepK=F KAlg= 0 I1Cent=   0 FoldK=F
 IRaf=         0 NMat=   1 IRICut=       1 DoRegI=T DoRafI=F ISym2E= 0.
 FoFCou: FMM=F IPFlag=           0 FMFlag=      100000 FMFlg1=         800
         NFxFlg=           0 DoJE=F BraDBF=F KetDBF=F FulRan=T
         wScrn=  0.000000 ICntrl=  100127 IOpCl=  0 I1Cent=           0 NGrid=           0
         NMat0=    1 NMatS0=      1 NMatT0=    0 NMatD0=    1 NMtDS0=    0 NMtDT0=    0
 Symmetry not used in FoFCou.
 FoFCou:  KetSym=F NOpSet=  1 NOpAb=1 NOp=  1.
 FoFCou:  CnvScl= 1.00D+00 Thresh= 1.00D-10 IAcrcy=      10.
 PrismS was handed   268410622 working-precision words and   170 shell-pairs
 FoFCou: LinMIO=F DoNuc=F BraDBF=F KetDBF=F HaveP=T PDBF=F HaveZ=T HaveW=F
         NIJTC =       6 NIJTAt=       0 NIJTCD=       0 NIJTT =       6
         IJTBeg=       1 IJTEnd=       6 KLTBeg=       1 KLTEnd=       6
         IPTBeg=       1 IPTEnd=       6 IPTBCv=       1 IPTECv=       6
         IZTBeg=       1 IZTEnd=       6 IZTBCv=       1 IZTECv=       6
         IWTBeg=       7 IWTEnd=       6 IWTBCv=       7 IWTECv=       6
         INTBeg=       1 INTEnd=       0 IFTBCv=       1 IFTECv=       6
 NCel replicated for PrismC:     1
 CoulSu:  IncDef=  1024 NBBP=          14535 NTPThr=   100 NPartT=    2 Incr=          72 LDynOK=F.
 CoulSu:  NPrtUS=   2 ThrOK=T IAlg=1 NPAlg=1 LenDen=           0 LWGrdD=           0 DoCopy=F.
 Enter PrismC: JobTyp=22 DoJE=F Cont=F.
 PrismC:  IPart=     0 DynPar=F LinDyn=F Incr=          72 UseFst=F UseS4=T IGathr=2.
 PrismC was handed   134200852 working-precision words and   170 shell-pairs
 Enter PrismC: JobTyp=22 DoJE=F Cont=F.
 PrismC was handed   134200852 working-precision words and   170 shell-pairs
 IPart=  1 NShTot=        6926 NShNF=        6926 NShFF=           0 NBatch=         611 AvBLen=        11.3
 IPart=  0 NShTot=        7351 NShNF=        7351 NShFF=           0 NBatch=         637 AvBLen=        11.5
 CoulSu:  NxtVal=            145.
 ReadGW:  IGet=0 IStart=           1 Next=           1 LGW=           0.
 Remaining memory in FofDFT      256.00 Mw
 CkSvGd:  ISavGI=        -1 IRadAn=       4 IRASav=       0 ISavGd=        -1.
 CalDSu:  NPrtUS=   2 ThrOK=T IAlg=1 NPAlg=2 DoDPD=T LenP=        1326 LenD1P=             0.
 IPart=  0 IRanGd=          0 ScrnBf=T ScrnGd=T RCrit=4.00D+00 DoMicB=T.
 IPart=  0        22291 of        23926 points in      48 batches and      158 microbatches, Max-NSigAt=       6 Max-NSgAt2=       6
 IPart=  1        21602 of        22964 points in      48 batches and      169 microbatches, Max-NSigAt=       6 Max-NSgAt2=       6
 Polarizability after L703:
                1             2             3 
      1  0.228821D+02
      2  0.000000D+00  0.966569D+01
      3 -0.281870D+01  0.000000D+00  0.269336D+02
 Dipole Derivatives after L703:
                 1             2             3             4             5 
      1   0.125411D+01  0.000000D+00 -0.418263D+00 -0.568802D+00  0.000000D+00
      2   0.000000D+00  0.321269D+00  0.000000D+00  0.000000D+00 -0.403757D+00
      3  -0.437046D+00  0.000000D+00  0.153494D+01  0.407710D-02  0.000000D+00
                 6             7             8             9            10 
      1   0.271165D+00 -0.849239D+00  0.000000D+00  0.311585D+00 -0.156666D+00
      2   0.000000D+00  0.000000D+00 -0.689577D+00  0.000000D+00  0.000000D+00
      3  -0.121791D+01  0.582294D+00  0.000000D+00 -0.503358D+00 -0.129314D+00
                11            12            13            14            15 
      1   0.000000D+00 -0.154248D+00  0.149876D+00  0.000000D+00 -0.352585D-04
      2   0.576295D-01  0.000000D+00  0.000000D+00  0.359604D+00  0.000000D+00
      3   0.000000D+00 -0.959429D-01 -0.261740D-01  0.000000D+00  0.144770D+00
                16            17            18 
      1   0.170725D+00  0.000000D+00 -0.102036D-01
      2   0.000000D+00  0.354830D+00  0.000000D+00
      3   0.616281D-02  0.000000D+00  0.137503D+00
 Hessian after L703:
                1             2             3             4             5 
      1  0.680307D+00
      2  0.000000D+00  0.185262D+00
      3 -0.210595D-02  0.000000D+00  0.105247D+01
      4 -0.115270D+00  0.000000D+00 -0.198035D-02  0.880612D-01
      5  0.000000D+00 -0.729257D-01  0.000000D+00  0.000000D+00  0.310798D-01
      6 -0.480638D-02  0.000000D+00 -0.750595D+00 -0.332940D-01  0.000000D+00
      7 -0.330449D+00  0.000000D+00  0.832497D-01  0.128986D-01  0.000000D+00
      8  0.000000D+00 -0.417582D-01  0.000000D+00  0.000000D+00  0.196887D-01
      9  0.976764D-01  0.000000D+00 -0.193212D+00  0.641803D-01  0.000000D+00
     10 -0.223174D+00  0.000000D+00 -0.893884D-01  0.139640D-01  0.000000D+00
     11  0.000000D+00 -0.607270D-01  0.000000D+00  0.000000D+00  0.198573D-01
     12 -0.990446D-01  0.000000D+00 -0.117324D+00 -0.301541D-01  0.000000D+00
     13  0.147224D-01  0.000000D+00  0.306803D-01 -0.627664D-02  0.000000D+00
     14  0.000000D+00 -0.107470D-01  0.000000D+00  0.000000D+00  0.828771D-02
     15 -0.708914D-02  0.000000D+00 -0.126298D-01  0.511708D-02  0.000000D+00
     16 -0.261356D-01  0.000000D+00 -0.204553D-01  0.662324D-02  0.000000D+00
     17  0.000000D+00  0.896317D-03  0.000000D+00  0.000000D+00 -0.598771D-02
     18  0.153697D-01  0.000000D+00  0.212923D-01 -0.386896D-02  0.000000D+00
                6             7             8             9            10 
      6  0.857713D+00
      7  0.478096D-01  0.799567D+00
      8  0.000000D+00  0.000000D+00  0.108070D-01
      9 -0.653882D-01  0.237907D-01  0.000000D+00  0.870961D+00
     10 -0.127579D-01 -0.323161D-01  0.000000D+00 -0.146526D-01  0.245789D+00
     11  0.000000D+00  0.000000D+00  0.103888D-01  0.000000D+00  0.000000D+00
     12 -0.407616D-01  0.142510D-01  0.000000D+00  0.144349D-01  0.112829D+00
     13  0.303241D-02 -0.785514D-01  0.000000D+00 -0.125106D-01 -0.760182D-03
     14  0.000000D+00  0.000000D+00  0.502320D-02  0.000000D+00  0.000000D+00
     15  0.108346D-02 -0.135054D-01  0.000000D+00 -0.465108D+00  0.304365D-03
     16  0.162564D-04 -0.371150D+00  0.000000D+00 -0.158484D+00 -0.350246D-02
     17  0.000000D+00  0.000000D+00 -0.414938D-02  0.000000D+00  0.000000D+00
     18 -0.205133D-02 -0.155596D+00  0.000000D+00 -0.161687D+00  0.366521D-02
               11            12            13            14            15 
     11  0.251341D-01
     12  0.000000D+00  0.144206D+00
     13  0.000000D+00 -0.150357D-02  0.631262D-01
     14 -0.134643D-02  0.000000D+00  0.000000D+00  0.468961D-02
     15  0.000000D+00  0.690153D-03  0.980582D-02  0.000000D+00  0.481124D+00
     16  0.000000D+00  0.362185D-02  0.773971D-02  0.000000D+00  0.536725D-02
     17  0.669328D-02  0.000000D+00  0.000000D+00 -0.590711D-02  0.000000D+00
     18  0.000000D+00 -0.124572D-02 -0.295043D-01  0.000000D+00 -0.515996D-02
               16            17            18 
     16  0.386425D+00
     17  0.000000D+00  0.845460D-02
     18  0.169934D+00  0.000000D+00  0.148852D+00
 FrcOut:
 IF    =   183 IFX   =   201 IFXYZ =   219
 IFFX  =   237 IFFFX =   408 IFLen =    18
 IFFLen=   171 IFFFLn=     0 IEDerv=   408
 LEDerv=   917 IFroze=  1545 ICStrt=  6924
 DipoleDeriv   = 1.25410584D+00-2.60064629D-12-4.37045850D-01
                -3.83610881D-11 3.21269083D-01 3.27091764D-11
                -4.18262954D-01 2.22991586D-12 1.53493786D+00
                -5.68801815D-01-5.92123889D-11 4.07709756D-03
                 2.17440168D-11-4.03756982D-01-2.94705369D-11
                 2.71165302D-01 3.48053877D-11-1.21790994D+00
                -8.49238728D-01 6.30081975D-11 5.82293857D-01
                -1.26960248D-10-6.89576589D-01 4.71363607D-11
                 3.11584688D-01-9.99509035D-11-5.03358202D-01
                -1.56666328D-01-7.38886926D-11-1.29313879D-01
                 4.96435017D-11 5.76295103D-02 3.03015366D-12
                -1.54248171D-01 5.88689297D-11-9.59429184D-02
                 1.49875948D-01 8.89078295D-11-2.61740309D-02
                 3.75278868D-11 3.59604499D-01-4.04106819D-11
                -3.52585227D-05 4.02619740D-11 1.44769995D-01
                 1.70725082D-01-2.93905182D-11 6.16280562D-03
                 5.25949857D-11 3.54830479D-01-4.64185085D-12
                -1.02036074D-02-3.05418087D-11 1.37503201D-01
 PolarDeriv    = 3.87866816D+00 1.82174049D-10-2.15734112D-01
                 3.22722206D+00-2.31862421D-10 3.34684048D-01
                 5.92626312D-10-6.19065715D-01 3.68173376D-10
                -1.00302562D-09-1.89041118D-01 1.74354130D-09
                 4.79035834D+00 1.60526868D-10-5.03211762D-01
                 3.83437834D+00-2.94914768D-10-4.40539345D+00
                -1.63714409D+00-7.16521699D-11 3.59473260D-01
                 3.40539737D+00-1.25902370D-11 8.09644502D-01
                -1.86247114D-10-7.83687248D-01-2.92176728D-10
                 5.57061952D-10 3.93005405D+00-1.08560812D-09
                 7.63421703D-03-6.49459232D-11 6.17567519D-01
                -3.71527731D+00 1.12860952D-10 1.09722161D+01
                -3.65386659D+00-1.02398003D-10 3.31942490D-01
                -2.64375795D+00 3.02370175D-10-5.02040922D-01
                 2.13279006D-10 2.00078712D+00 3.02555771D-11
                -3.85206046D-10-1.84816376D+00 5.01104564D-10
                -3.27580486D+00-6.44558245D-11 9.02919528D-02
                -4.91608930D-01 1.49541853D-10 5.26344109D+00
                -7.42366692D+00-4.55968248D-11-4.38496973D-01
                -3.04455708D+00-2.24042943D-11-1.49582973D+00
                 1.38397788D-10-1.98712906D+00-8.81015411D-12
                 4.96211101D-11-1.12581584D+00 1.73763156D-11
                -3.47084763D+00 2.64281817D-12-2.73343503D-01
                -3.35634373D+00 1.06359673D-10-3.20801814D+00
                 8.35280012D-01 7.92582487D-12 3.93974758D-02
                -1.64629530D+00 5.37788532D-12-3.49452370D-01
                -1.32820435D-10-4.43206768D-02-1.28174585D-10
                 3.61643998D-10-1.41971463D+00-3.77836097D-10
                -1.45425938D+00-5.28898651D-11 5.76473234D-02
                 1.87226021D+00 3.07043981D-11-9.42229468D+00
                 8.00072943D+00 2.56072704D-11-7.65821402D-02
                 7.01990896D-01-4.34765936D-11 1.20299447D+00
                -6.69254035D-10 1.43341557D+00 2.90365796D-11
                 4.19788129D-10 6.52681299D-01-7.92777128D-10
                 3.40291931D+00 1.01336166D-11 1.10484695D-02
                 1.85659141D+00-1.08171174D-10 8.00049076D-01
 VibFq2-Diag1:  N=     18 IV=           7 MDV=   268426931 NE2=    14912606
 Full mass-weighted force constant matrix:
 Low frequencies ---  -87.9008  -60.1201  -43.2022   -0.0009    0.0012    0.0013
 Low frequencies ---   25.0363  562.4680  644.0883
 OrtVCM:  Ph=1 IPass= 1 DotMx1= 0.00D+00
 OrtVCM:  IS=    1 I=    1 IndO=    1 Dot= 1.00D+00 DotN= 1.00D+00 ElMax1= 5.96D-01 ElMax1N= 5.96D-01
 OrtVCM:  Ph=2 NNew=    0 IAdd=    2 IPass= 1 DotMx2= 0.00D+00
 OrtVCM:  IS=    1 I=    2 IndO=    2 Dot= 1.00D+00 DotN= 1.00D+00 ElMax1= 5.96D-01 ElMax1N= 5.96D-01
 OrtVCM:  Ph=2 NNew=    0 IAdd=    3 IPass= 1 DotMx2= 0.00D+00
 OrtVCM:  IS=    1 I=    3 IndO=    3 Dot= 1.00D+00 DotN= 1.00D+00 ElMax1= 5.96D-01 ElMax1N= 5.96D-01
 OrtVCM:  Ph=2 NNew=    0 IAdd=    4 IPass= 1 DotMx2= 2.78D-17
 OrtVCM:  IS=    1 I=    4 IndO=    4 Dot= 1.00D+00 DotN= 1.00D+00 ElMax1= 5.78D-01 ElMax1N= 5.78D-01
 OrtVCM:  Ph=2 NNew=    0 IAdd=    5 IPass= 1 DotMx2= 1.39D-16
 OrtVCM:  IS=    1 I=    5 IndO=    5 Dot= 1.00D+00 DotN= 1.00D+00 ElMax1= 6.80D-01 ElMax1N= 6.80D-01
 OrtVCM:  Ph=2 NNew=    0 IAdd=    6 IPass= 1 DotMx2= 3.17D-16
 OrtVCM:  IS=    1 I=    6 IndO=    6 Dot= 1.00D+00 DotN= 1.00D+00 ElMax1= 5.97D-01 ElMax1N= 5.97D-01
 OrtVCM:  Ph=1 IPass= 1 DotMx1= 6.80D-01
 OrtVCM:  Ph=1 IPass= 2 DotMx1= 2.60D-16
 OrtVCM:  IS=    1 I=    1 IndO=    7 Dot= 7.29D-01 DotN= 7.29D-01 ElMax1= 7.29D-01 ElMax1N= 7.29D-01
 OrtVCM:  Ph=2 NNew=    0 IAdd=    2 IPass= 1 DotMx2= 1.12D-16
 OrtVCM:  IS=    1 I=    2 IndO=    8 Dot= 4.43D-01 DotN= 4.43D-01 ElMax1= 4.43D-01 ElMax1N= 4.43D-01
 OrtVCM:  Ph=2 NNew=    0 IAdd=    3 IPass= 1 DotMx2= 1.53D-02
 OrtVCM:  Ph=2 NNew=    0 IAdd=    3 IPass= 2 DotMx2= 5.75D-18
 OrtVCM:  IS=    1 I=    3 IndO=    9 Dot= 6.97D-01 DotN= 6.97D-01 ElMax1= 6.97D-01 ElMax1N= 6.97D-01
 OrtVCM:  Ph=2 NNew=    0 IAdd=    4 IPass= 1 DotMx2= 3.12D-01
 OrtVCM:  Ph=2 NNew=    0 IAdd=    4 IPass= 2 DotMx2= 5.90D-17
 OrtVCM:  IS=    1 I=    4 IndO=   10 Dot= 1.74D-01 DotN= 1.74D-01 ElMax1= 1.92D-01 ElMax1N= 1.92D-01
 OrtVCM:  Ph=2 NNew=    0 IAdd=    5 IPass= 1 DotMx2= 2.53D-01
 OrtVCM:  Ph=2 NNew=    0 IAdd=    5 IPass= 2 DotMx2= 1.91D-17
 OrtVCM:  IS=    1 I=    5 IndO=   11 Dot= 1.72D-02 DotN= 1.72D-02 ElMax1= 1.07D-01 ElMax1N= 1.07D-01
 OrtVCM:  Ph=2 NNew=    0 IAdd=    6 IPass= 1 DotMx2= 4.60D-01
 OrtVCM:  Ph=2 NNew=    0 IAdd=    6 IPass= 2 DotMx2= 8.98D-17
 OrtVCM:  IS=    1 I=    6 IndO=   12 Dot= 1.96D-01 DotN= 1.96D-01 ElMax1= 3.25D-01 ElMax1N= 3.25D-01
 OrtVCM:  Ph=2 NNew=    0 IAdd=    7 IPass= 1 DotMx2= 3.85D-01
 OrtVCM:  Ph=2 NNew=    0 IAdd=    7 IPass= 2 DotMx2= 1.53D-16
 OrtVCM:  IS=    1 I=    7 IndO=   13 Dot= 1.76D-01 DotN= 1.76D-01 ElMax1= 2.28D-01 ElMax1N= 2.28D-01
 OrtVCM:  Ph=2 NNew=    0 IAdd=    8 IPass= 1 DotMx2= 2.00D-01
 OrtVCM:  Ph=2 NNew=    0 IAdd=    8 IPass= 2 DotMx2= 1.39D-17
 OrtVCM:  IS=    1 I=    8 IndO=   14 Dot= 1.58D-01 DotN= 1.58D-01 ElMax1= 3.03D-01 ElMax1N= 3.03D-01
 OrtVCM:  Ph=2 NNew=    0 IAdd=    9 IPass= 1 DotMx2= 4.57D-01
 OrtVCM:  Ph=2 NNew=    0 IAdd=    9 IPass= 2 DotMx2= 1.80D-16
 OrtVCM:  IS=    1 I=    9 IndO=   15 Dot= 1.67D-01 DotN= 1.67D-01 ElMax1= 2.62D-01 ElMax1N= 2.62D-01
 OrtVCM:  Ph=2 NNew=    0 IAdd=   10 IPass= 1 DotMx2= 5.31D-01
 OrtVCM:  Ph=2 NNew=    0 IAdd=   10 IPass= 2 DotMx2= 2.91D-17
 OrtVCM:  IS=    1 I=   10 IndO=   16 Dot= 6.55D-01 DotN= 6.55D-01 ElMax1= 6.55D-01 ElMax1N= 6.55D-01
 OrtVCM:  Ph=2 NNew=    0 IAdd=   11 IPass= 1 DotMx2= 5.83D-01
 OrtVCM:  Ph=2 NNew=    0 IAdd=   11 IPass= 2 DotMx2= 1.39D-16
 OrtVCM:  IS=    1 I=   11 IndO=    0 Dot= 1.80D-31 DotN= 1.80D-31 ElMax1= 2.14D-16 ElMax1N= 2.14D-16
 OrtVCM:  Ph=2 NNew=    0 IAdd=   12 IPass= 1 DotMx2= 7.33D-01
 OrtVCM:  Ph=2 NNew=    0 IAdd=   12 IPass= 2 DotMx2= 6.59D-17
 OrtVCM:  IS=    1 I=   12 IndO=   17 Dot= 1.78D-01 DotN= 1.78D-01 ElMax1= 2.24D-01 ElMax1N= 2.24D-01
 SchOr2:  IPass= 1 Test2A= 1.00D-01 IOff=     0 NDo=    12 NNew=    11
 OrtVCM:  Ph=1 IPass= 1 DotMx1= 5.15D-01
 OrtVCM:  Ph=1 IPass= 2 DotMx1= 1.63D-16
 OrtVCM:  IS=    1 I=    1 IndO=   18 Dot= 1.38D-01 DotN= 1.38D-01 ElMax1= 2.24D-01 ElMax1N= 2.24D-01
 SchOr2:  IPass= 1 Test2A= 1.00D-01 IOff=    12 NDo=     1 NNew=     1
 VibFq2-Diag2:  N=     12 IV=           7 MDV=   268426931 NE2=    22368910
 Dipole derivatives wrt mode   1: -1.69757D-09 -1.62854D+01  1.12663D-09
 Polarizability derivatives wrt mode          1
                 1             2             3 
      1   0.000000D+00 -0.123370D+00  0.000000D+00
      2  -0.123370D+00  0.000000D+00  0.131962D+00
      3   0.000000D+00  0.131962D+00  0.000000D+00
 Vibrational polarizability contributions from mode   1       0.0000000   11477.7832329       0.0000000
 IFr=  0 A012= 0.20D-18 0.59D+00 0.98D-01 Act= 0.69D+00 DepolP= 0.75D+00 DepolU= 0.86D+00
 Dipole derivatives wrt mode   2: -3.30657D+00  1.43049D-10  1.03559D+00
 Polarizability derivatives wrt mode          2
                 1             2             3 
      1  -0.371511D-01  0.000000D+00  0.231579D+00
      2   0.000000D+00  0.454593D-01  0.000000D+00
      3   0.231579D+00  0.000000D+00 -0.119026D+00
 Vibrational polarizability contributions from mode   2       0.9300232       0.0000000       0.0912256
 IFr=  0 A012= 0.18D-01 0.11D+01 0.19D+00 Act= 0.13D+01 DepolP= 0.69D+00 DepolU= 0.82D+00
 Dipole derivatives wrt mode   3: -6.69480D-10 -4.46226D+00 -7.39319D-10
 Polarizability derivatives wrt mode          3
                 1             2             3 
      1   0.000000D+00 -0.149210D+00  0.000000D+00
      2  -0.149210D+00  0.000000D+00 -0.237026D+00
      3   0.000000D+00 -0.237026D+00  0.000000D+00
 Vibrational polarizability contributions from mode   3       0.0000000       1.2916963       0.0000000
 IFr=  0 A012= 0.10D-20 0.14D+01 0.24D+00 Act= 0.16D+01 DepolP= 0.75D+00 DepolU= 0.86D+00
 Dipole derivatives wrt mode   4: -8.85848D-10 -2.61741D-01 -6.19150D-10
 Polarizability derivatives wrt mode          4
                 1             2             3 
      1   0.000000D+00  0.341247D+00  0.000000D+00
      2   0.341247D+00  0.000000D+00  0.183176D+00
      3   0.000000D+00  0.183176D+00  0.000000D+00
 Vibrational polarizability contributions from mode   4       0.0000000       0.0017112       0.0000000
 IFr=  0 A012= 0.20D-20 0.27D+01 0.45D+00 Act= 0.32D+01 DepolP= 0.75D+00 DepolU= 0.86D+00
 Dipole derivatives wrt mode   5: -7.12473D-01  2.66790D-09  1.24693D+00
 Polarizability derivatives wrt mode          5
                 1             2             3 
      1   0.260241D+00  0.000000D+00 -0.452243D+00
      2   0.000000D+00  0.150738D-01  0.000000D+00
      3  -0.452243D+00  0.000000D+00  0.216979D+00
 Vibrational polarizability contributions from mode   5       0.0120738       0.0000000       0.0369818
 IFr=  0 A012= 0.36D+00 0.47D+01 0.79D+00 Act= 0.59D+01 DepolP= 0.52D+00 DepolU= 0.68D+00
 Dipole derivatives wrt mode   6:  8.74839D+00 -7.24399D-10 -4.03246D+00
 Polarizability derivatives wrt mode          6
                 1             2             3 
      1  -0.469292D+00  0.000000D+00  0.255382D+00
      2   0.000000D+00 -0.421707D-01  0.000000D+00
      3   0.255382D+00  0.000000D+00 -0.570454D-01
 Vibrational polarizability contributions from mode   6       1.2406730       0.0000000       0.2635980
 IFr=  0 A012= 0.48D+00 0.32D+01 0.53D+00 Act= 0.42D+01 DepolP= 0.36D+00 DepolU= 0.53D+00
 Dipole derivatives wrt mode   7: -1.55201D-01 -2.17256D-09 -1.99389D+00
 Polarizability derivatives wrt mode          7
                 1             2             3 
      1  -0.175871D+00  0.000000D+00  0.133982D+00
      2   0.000000D+00  0.282177D-01  0.000000D+00
      3   0.133982D+00  0.000000D+00  0.799663D+00
 Vibrational polarizability contributions from mode   7       0.0003149       0.0000000       0.0519707
 IFr=  0 A012= 0.64D+00 0.64D+01 0.11D+01 Act= 0.81D+01 DepolP= 0.46D+00 DepolU= 0.63D+00
 Dipole derivatives wrt mode   8: -7.66910D+00 -2.21416D-09  3.06998D+00
 Polarizability derivatives wrt mode          8
                 1             2             3 
      1  -0.124748D+00  0.000000D+00  0.446617D+00
      2   0.000000D+00  0.274571D-01  0.000000D+00
      3   0.446617D+00  0.000000D+00  0.339322D+00
 Vibrational polarizability contributions from mode   8       0.5881111       0.0000000       0.0942415
 IFr=  0 A012= 0.88D-01 0.48D+01 0.80D+00 Act= 0.57D+01 DepolP= 0.68D+00 DepolU= 0.81D+00
 Dipole derivatives wrt mode   9: -7.41061D+00 -6.64244D-10  1.73853D+01
 Polarizability derivatives wrt mode          9
                 1             2             3 
      1   0.119240D-01  0.000000D+00  0.323387D+00
      2   0.000000D+00 -0.630916D-01  0.000000D+00
      3   0.323387D+00  0.000000D+00 -0.626905D+00
 Vibrational polarizability contributions from mode   9       0.4331895       0.0000000       2.3841447
 IFr=  0 A012= 0.69D+00 0.55D+01 0.91D+00 Act= 0.71D+01 DepolP= 0.41D+00 DepolU= 0.58D+00
 Dipole derivatives wrt mode  10: -8.64568D+00 -1.11521D-09 -6.02660D+00
 Polarizability derivatives wrt mode         10
                 1             2             3 
      1  -0.232893D+01  0.000000D+00 -0.128255D+01
      2   0.000000D+00 -0.127843D+00  0.000000D+00
      3  -0.128255D+01  0.000000D+00 -0.732637D+00
 Vibrational polarizability contributions from mode  10       0.2241609       0.0000000       0.1089195
 IFr=  0 A012= 0.15D+02 0.83D+02 0.14D+02 Act= 0.11D+03 DepolP= 0.31D+00 DepolU= 0.47D+00
 Dipole derivatives wrt mode  11: -4.92083D+00  1.97580D-09  2.42288D+00
 Polarizability derivatives wrt mode         11
                 1             2             3 
      1  -0.210800D+01  0.000000D+00 -0.297075D-01
      2   0.000000D+00  0.277836D-01  0.000000D+00
      3  -0.297075D-01  0.000000D+00 -0.196844D+01
 Vibrational polarizability contributions from mode  11       0.0504084       0.0000000       0.0122205
 IFr=  0 A012= 0.25D+02 0.75D+02 0.12D+02 Act= 0.11D+03 DepolP= 0.13D+00 DepolU= 0.23D+00
 Dipole derivatives wrt mode  12: -2.97819D+00 -2.68827D-10 -4.94718D+00
 Polarizability derivatives wrt mode         12
                 1             2             3 
      1  -0.122672D+01  0.000000D+00 -0.647183D+00
      2   0.000000D+00  0.504967D-02  0.000000D+00
      3  -0.647183D+00  0.000000D+00  0.181514D+01
 Vibrational polarizability contributions from mode  12       0.0171799       0.0000000       0.0474057
 IFr=  0 A012= 0.53D+00 0.51D+02 0.85D+01 Act= 0.60D+02 DepolP= 0.71D+00 DepolU= 0.83D+00
 Diagonal vibrational polarizability:
        3.4961346   11479.0766404       3.0907080
 Diagonal vibrational hyperpolarizability:
        4.2108500      -0.0000017     -12.3541004
 NorSel:  MapVib=      1      2      3      4      5      6      7      8      9     10
 NorSel:  MapVib=     11     12
 Harmonic frequencies (cm**-1), IR intensities (KM/Mole), Raman scattering
 activities (A**4/AMU), depolarization ratios for plane and unpolarized
 incident light, reduced masses (AMU), force constants (mDyne/A),
 and normal coordinates:
                      1                      2                      3
                      A                      A                      A
 Frequencies --     24.9365               562.4679               644.0824
 Red. masses --      1.2283                 2.4104                 1.2050
 Frc consts  --      0.0005                 0.4493                 0.2945
 IR Inten    --    265.2136                12.0059                19.9118
 Raman Activ --      0.6853                 1.3295                 1.6473
 Depolar (P) --      0.7500                 0.6915                 0.7500
 Depolar (U) --      0.8571                 0.8176                 0.8571
  Atom  AN      X      Y      Z        X      Y      Z        X      Y      Z
     1   6     0.00  -0.02   0.00    -0.17   0.00  -0.10     0.00  -0.10   0.00
     2   8     0.00  -0.01   0.00     0.19   0.00  -0.09     0.00   0.06   0.00
     3   7     0.00   0.13   0.00    -0.06   0.00   0.14     0.00   0.05   0.00
     4   1     0.00   0.02   0.00    -0.24   0.00   0.01     0.00  -0.22   0.00
     5   1     0.00  -0.83   0.00     0.49   0.00   0.13     0.00   0.60   0.00
     6   1     0.00  -0.54   0.00    -0.35   0.00   0.68     0.00  -0.76   0.00
                      4                      5                      6
                      A                      A                      A
 Frequencies --   1037.9678              1063.6866              1288.4455
 Red. masses --      1.5387                 1.7492                 2.7175
 Frc consts  --      0.9767                 1.1661                 2.6580
 IR Inten    --      0.0685                 2.0624                92.7951
 Raman Activ --      3.1501                 5.8664                 4.2197
 Depolar (P) --      0.7500                 0.5153                 0.3595
 Depolar (U) --      0.8571                 0.6801                 0.5289
  Atom  AN      X      Y      Z        X      Y      Z        X      Y      Z
     1   6     0.00   0.21   0.00    -0.02   0.00   0.04     0.31   0.00  -0.01
     2   8     0.00  -0.05   0.00    -0.05   0.00   0.11    -0.04   0.00  -0.02
     3   7     0.00  -0.03   0.00     0.05   0.00  -0.19    -0.22   0.00   0.00
     4   1     0.00  -0.96   0.00    -0.17   0.00   0.28     0.42   0.00  -0.18
     5   1     0.00  -0.02   0.00     0.78   0.00  -0.21     0.03   0.00   0.01
     6   1     0.00  -0.17   0.00    -0.23   0.00   0.37    -0.53   0.00   0.60
                      7                      8                      9
                      A                      A                      A
 Frequencies --   1434.7873              1640.5185              1847.0619
 Red. masses --      1.2230                 1.2502                 7.5643
 Frc consts  --      1.4834                 1.9824                15.2049
 IR Inten    --      3.9997                68.2398               357.1644
 Raman Activ --      8.0621                 5.6569                 7.0557
 Depolar (P) --      0.4611                 0.6846                 0.4063
 Depolar (U) --      0.6312                 0.8128                 0.5779
  Atom  AN      X      Y      Z        X      Y      Z        X      Y      Z
     1   6    -0.08   0.00  -0.01    -0.04   0.00  -0.03    -0.11   0.00   0.62
     2   8     0.03   0.00   0.09     0.00   0.00   0.04     0.01   0.00  -0.37
     3   7    -0.01   0.00  -0.03     0.10   0.00  -0.06     0.06   0.00  -0.10
     4   1     0.47   0.00  -0.86    -0.03   0.00  -0.08     0.46   0.00  -0.26
     5   1     0.17   0.00  -0.04    -0.74   0.00  -0.04     0.00   0.00  -0.11
     6   1     0.01   0.00  -0.06    -0.24   0.00   0.61    -0.17   0.00   0.37
                     10                     11                     12
                      A                      A                      A
 Frequencies --   2995.6147              3595.4536              3727.4283
 Red. masses --      1.0863                 1.0457                 1.1049
 Frc consts  --      5.7433                 7.9648                 9.0445
 IR Inten    --    111.0677                30.0849                33.3443
 Raman Activ --    112.5607               111.9579                59.7200
 Depolar (P) --      0.3070                 0.1297                 0.7121
 Depolar (U) --      0.4698                 0.2297                 0.8319
  Atom  AN      X      Y      Z        X      Y      Z        X      Y      Z
     1   6    -0.07   0.00  -0.05     0.00   0.00   0.00     0.00   0.00   0.00
     2   8     0.00   0.00   0.00     0.00   0.00   0.00     0.00   0.00   0.00
     3   7     0.00   0.00   0.00     0.05   0.00  -0.02     0.04   0.00   0.08
     4   1     0.84   0.00   0.54     0.00   0.00   0.00    -0.01   0.00  -0.01
     5   1    -0.01   0.00  -0.01     0.02   0.00   0.63    -0.02   0.00  -0.77
     6   1    -0.01   0.00   0.00    -0.68   0.00  -0.36    -0.56   0.00  -0.29

 -------------------
 - Thermochemistry -
 -------------------
 Temperature   298.150 Kelvin.  Pressure   1.00000 Atm.
 Atom     1 has atomic number  6 and mass  12.00000
 Atom     2 has atomic number  8 and mass  15.99491
 Atom     3 has atomic number  7 and mass  14.00307
 Atom     4 has atomic number  1 and mass   1.00783
 Atom     5 has atomic number  1 and mass   1.00783
 Atom     6 has atomic number  1 and mass   1.00783
 Molecular mass:    45.02146 amu.
 Principal axes and moments of inertia in atomic units:
                           1         2         3
     Eigenvalues --    24.66802 158.90742 183.57544
           X           -0.53387   0.84557   0.00000
           Y            0.00000   0.00000   1.00000
           Z            0.84557   0.53387   0.00000
 This molecule is an asymmetric top.
 Rotational symmetry number  1.
 Rotational temperatures (Kelvin)      3.51118     0.54506     0.47182
 Rotational constants (GHZ):          73.16116    11.35719     9.83106
 Zero-point vibrational energy     118803.8 (Joules/Mol)
                                   28.39480 (Kcal/Mol)
 Warning -- explicit consideration of   2 degrees of freedom as
           vibrations may cause significant error
 Vibrational temperatures:     35.88   809.26   926.69  1493.40  1530.41
          (Kelvin)           1853.78  2064.34  2360.34  2657.51  4310.02
                             5173.05  5362.93
 
 Zero-point correction=                           0.045250 (Hartree/Particle)
 Thermal correction to Energy=                    0.049373
 Thermal correction to Enthalpy=                  0.050317
 Thermal correction to Gibbs Free Energy=         0.019033
 Sum of electronic and zero-point Energies=           -169.843529
 Sum of electronic and thermal Energies=              -169.839406
 Sum of electronic and thermal Enthalpies=            -169.838462
 Sum of electronic and thermal Free Energies=         -169.869746
 
                     E (Thermal)             CV                S
                      KCal/Mol        Cal/Mol-Kelvin    Cal/Mol-Kelvin
 Total                   30.982             10.964             65.843
 Electronic               0.000              0.000              0.000
 Translational            0.889              2.981             37.339
 Rotational               0.889              2.981             21.203
 Vibrational             29.204              5.002              7.301
 Vibration     1          0.593              1.985              6.196
 Vibration     2          0.918              1.112              0.519
                       Q            Log10(Q)             Ln(Q)
 Total Bot       0.176019D-08         -8.754440        -20.157844
 Total V=0       0.114569D+13         12.059067         27.767028
 Vib (Bot)       0.154377D-19        -19.811418        -45.617476
 Vib (Bot)    1  0.830509D+01          0.919344          2.116869
 Vib (Bot)    2  0.275658D+00         -0.559630         -1.288595
 Vib (V=0)       0.100482D+02          1.002089          2.307396
 Vib (V=0)    1  0.882013D+01          0.945475          2.177037
 Vib (V=0)    2  0.107095D+01          0.029770          0.068549
 Electronic      0.100000D+01          0.000000          0.000000
 Translational   0.118737D+08          7.074585         16.289833
 Rotational      0.960269D+04          3.982393          9.169799
 -------------------------------------------------------------------
 Center     Atomic                   Forces (Hartrees/Bohr)
 Number     Number              X              Y              Z
 -------------------------------------------------------------------
      1        6          -0.000655149    0.000000000    0.002919140
      2        8          -0.000539315    0.000000000    0.003655141
      3        7           0.001432581    0.000000000   -0.003327987
      4        1          -0.000540991    0.000000000   -0.002581840
      5        1           0.000242246    0.000000000   -0.001238972
      6        1           0.000060629    0.000000000    0.000574519
 -------------------------------------------------------------------
 Cartesian Forces:  Max     0.003655141 RMS     0.001574367
 Force constants in Cartesian coordinates: 
                1             2             3             4             5 
      1  0.680307D+00
      2  0.000000D+00  0.185262D+00
      3 -0.210595D-02  0.000000D+00  0.105247D+01
      4 -0.115270D+00  0.000000D+00 -0.198035D-02  0.880612D-01
      5  0.000000D+00 -0.729257D-01  0.000000D+00  0.000000D+00  0.310798D-01
      6 -0.480638D-02  0.000000D+00 -0.750595D+00 -0.332940D-01  0.000000D+00
      7 -0.330449D+00  0.000000D+00  0.832497D-01  0.128986D-01  0.000000D+00
      8  0.000000D+00 -0.417582D-01  0.000000D+00  0.000000D+00  0.196887D-01
      9  0.976764D-01  0.000000D+00 -0.193212D+00  0.641803D-01  0.000000D+00
     10 -0.223174D+00  0.000000D+00 -0.893884D-01  0.139640D-01  0.000000D+00
     11  0.000000D+00 -0.607270D-01  0.000000D+00  0.000000D+00  0.198573D-01
     12 -0.990446D-01  0.000000D+00 -0.117324D+00 -0.301541D-01  0.000000D+00
     13  0.147224D-01  0.000000D+00  0.306803D-01 -0.627664D-02  0.000000D+00
     14  0.000000D+00 -0.107470D-01  0.000000D+00  0.000000D+00  0.828771D-02
     15 -0.708914D-02  0.000000D+00 -0.126298D-01  0.511708D-02  0.000000D+00
     16 -0.261356D-01  0.000000D+00 -0.204553D-01  0.662324D-02  0.000000D+00
     17  0.000000D+00  0.896317D-03  0.000000D+00  0.000000D+00 -0.598771D-02
     18  0.153697D-01  0.000000D+00  0.212923D-01 -0.386896D-02  0.000000D+00
                6             7             8             9            10 
      6  0.857713D+00
      7  0.478096D-01  0.799567D+00
      8  0.000000D+00  0.000000D+00  0.108070D-01
      9 -0.653882D-01  0.237907D-01  0.000000D+00  0.870961D+00
     10 -0.127579D-01 -0.323161D-01  0.000000D+00 -0.146526D-01  0.245789D+00
     11  0.000000D+00  0.000000D+00  0.103888D-01  0.000000D+00  0.000000D+00
     12 -0.407616D-01  0.142510D-01  0.000000D+00  0.144349D-01  0.112829D+00
     13  0.303241D-02 -0.785514D-01  0.000000D+00 -0.125106D-01 -0.760182D-03
     14  0.000000D+00  0.000000D+00  0.502320D-02  0.000000D+00  0.000000D+00
     15  0.108346D-02 -0.135054D-01  0.000000D+00 -0.465108D+00  0.304365D-03
     16  0.162564D-04 -0.371150D+00  0.000000D+00 -0.158484D+00 -0.350246D-02
     17  0.000000D+00  0.000000D+00 -0.414938D-02  0.000000D+00  0.000000D+00
     18 -0.205133D-02 -0.155596D+00  0.000000D+00 -0.161687D+00  0.366521D-02
               11            12            13            14            15 
     11  0.251341D-01
     12  0.000000D+00  0.144206D+00
     13  0.000000D+00 -0.150357D-02  0.631262D-01
     14 -0.134643D-02  0.000000D+00  0.000000D+00  0.468961D-02
     15  0.000000D+00  0.690153D-03  0.980582D-02  0.000000D+00  0.481124D+00
     16  0.000000D+00  0.362185D-02  0.773971D-02  0.000000D+00  0.536725D-02
     17  0.669328D-02  0.000000D+00  0.000000D+00 -0.590711D-02  0.000000D+00
     18  0.000000D+00 -0.124572D-02 -0.295043D-01  0.000000D+00 -0.515996D-02
               16            17            18 
     16  0.386425D+00
     17  0.000000D+00  0.845460D-02
     18  0.169934D+00  0.000000D+00  0.148852D+00
 Cartesian forces in FCRed:
 I=    1 X=  -6.551492908233D-04 Y=   0.000000000000D+00 Z=   2.919139951768D-03
 I=    2 X=  -5.393149635240D-04 Y=   0.000000000000D+00 Z=   3.655140742669D-03
 I=    3 X=   1.432580619325D-03 Y=   0.000000000000D+00 Z=  -3.327986914815D-03
 I=    4 X=  -5.409909097556D-04 Y=   0.000000000000D+00 Z=  -2.581840364703D-03
 I=    5 X=   2.422459077345D-04 Y=   0.000000000000D+00 Z=  -1.238972481329D-03
 I=    6 X=   6.062863705303D-05 Y=   0.000000000000D+00 Z=   5.745190664599D-04
 Cartesian force constants in FCRed: 
                1             2             3             4             5 
      1  0.680307D+00
      2  0.000000D+00  0.185262D+00
      3 -0.210595D-02  0.000000D+00  0.105247D+01
      4 -0.115270D+00  0.000000D+00 -0.198035D-02  0.880612D-01
      5  0.000000D+00 -0.729257D-01  0.000000D+00  0.000000D+00  0.310798D-01
      6 -0.480638D-02  0.000000D+00 -0.750595D+00 -0.332940D-01  0.000000D+00
      7 -0.330449D+00  0.000000D+00  0.832497D-01  0.128986D-01  0.000000D+00
      8  0.000000D+00 -0.417582D-01  0.000000D+00  0.000000D+00  0.196887D-01
      9  0.976764D-01  0.000000D+00 -0.193212D+00  0.641803D-01  0.000000D+00
     10 -0.223174D+00  0.000000D+00 -0.893884D-01  0.139640D-01  0.000000D+00
     11  0.000000D+00 -0.607270D-01  0.000000D+00  0.000000D+00  0.198573D-01
     12 -0.990446D-01  0.000000D+00 -0.117324D+00 -0.301541D-01  0.000000D+00
     13  0.147224D-01  0.000000D+00  0.306803D-01 -0.627664D-02  0.000000D+00
     14  0.000000D+00 -0.107470D-01  0.000000D+00  0.000000D+00  0.828771D-02
     15 -0.708914D-02  0.000000D+00 -0.126298D-01  0.511708D-02  0.000000D+00
     16 -0.261356D-01  0.000000D+00 -0.204553D-01  0.662324D-02  0.000000D+00
     17  0.000000D+00  0.896317D-03  0.000000D+00  0.000000D+00 -0.598771D-02
     18  0.153697D-01  0.000000D+00  0.212923D-01 -0.386896D-02  0.000000D+00
                6             7             8             9            10 
      6  0.857713D+00
      7  0.478096D-01  0.799567D+00
      8  0.000000D+00  0.000000D+00  0.108070D-01
      9 -0.653882D-01  0.237907D-01  0.000000D+00  0.870961D+00
     10 -0.127579D-01 -0.323161D-01  0.000000D+00 -0.146526D-01  0.245789D+00
     11  0.000000D+00  0.000000D+00  0.103888D-01  0.000000D+00  0.000000D+00
     12 -0.407616D-01  0.142510D-01  0.000000D+00  0.144349D-01  0.112829D+00
     13  0.303241D-02 -0.785514D-01  0.000000D+00 -0.125106D-01 -0.760182D-03
     14  0.000000D+00  0.000000D+00  0.502320D-02  0.000000D+00  0.000000D+00
     15  0.108346D-02 -0.135054D-01  0.000000D+00 -0.465108D+00  0.304365D-03
     16  0.162564D-04 -0.371150D+00  0.000000D+00 -0.158484D+00 -0.350246D-02
     17  0.000000D+00  0.000000D+00 -0.414938D-02  0.000000D+00  0.000000D+00
     18 -0.205133D-02 -0.155596D+00  0.000000D+00 -0.161687D+00  0.366521D-02
               11            12            13            14            15 
     11  0.251341D-01
     12  0.000000D+00  0.144206D+00
     13  0.000000D+00 -0.150357D-02  0.631262D-01
     14 -0.134643D-02  0.000000D+00  0.000000D+00  0.468961D-02
     15  0.000000D+00  0.690153D-03  0.980582D-02  0.000000D+00  0.481124D+00
     16  0.000000D+00  0.362185D-02  0.773971D-02  0.000000D+00  0.536725D-02
     17  0.669328D-02  0.000000D+00  0.000000D+00 -0.590711D-02  0.000000D+00
     18  0.000000D+00 -0.124572D-02 -0.295043D-01  0.000000D+00 -0.515996D-02
               16            17            18 
     16  0.386425D+00
     17  0.000000D+00  0.845460D-02
     18  0.169934D+00  0.000000D+00  0.148852D+00
 FormGI is forming the generalized inverse of G from B-inverse, IUseBI=4.
 Internal forces: 
                 1 
      1   0.367093D-02
      2   0.362372D-02
      3   0.190092D-02
      4   0.123473D-02
      5   0.320441D-03
      6   0.191915D-02
      7   0.947350D-03
      8  -0.286650D-02
      9   0.640850D-03
     10  -0.776867D-03
     11   0.136017D-03
     12   0.000000D+00
     13   0.000000D+00
     14   0.000000D+00
     15   0.000000D+00
 Internal force constants: 
                1             2             3             4             5 
      1  0.859043D+00
      2  0.794351D-01  0.473947D+00
      3  0.333213D-01  0.170954D-01  0.318579D+00
      4 -0.986583D-03  0.426130D-02  0.612318D-03  0.481348D+00
      5 -0.107173D-02  0.765095D-02 -0.328855D-03 -0.220556D-02  0.474968D+00
      6  0.317709D-01  0.201973D-01 -0.148092D-01  0.795608D-02 -0.820599D-02
      7  0.106891D-01 -0.301313D-01  0.995282D-04 -0.357757D-02  0.102501D-02
      8 -0.424600D-01  0.993395D-02  0.147097D-01 -0.437851D-02  0.718098D-02
      9  0.302676D-02  0.940809D-02  0.319807D-03  0.296325D-02 -0.101256D-01
     10  0.409421D-04  0.234703D-02  0.218581D-02 -0.880099D-02  0.702674D-02
     11 -0.306770D-02 -0.117551D-01 -0.250562D-02  0.583774D-02  0.309887D-02
     12  0.000000D+00  0.000000D+00  0.000000D+00  0.000000D+00  0.000000D+00
     13  0.000000D+00  0.000000D+00  0.000000D+00  0.000000D+00  0.000000D+00
     14  0.000000D+00  0.000000D+00  0.000000D+00  0.000000D+00  0.000000D+00
     15  0.000000D+00  0.000000D+00  0.000000D+00  0.000000D+00  0.000000D+00
                6             7             8             9            10 
      6  0.170409D+00
      7 -0.862840D-01  0.122568D+00
      8 -0.841246D-01 -0.362838D-01  0.120408D+00
      9  0.215584D-01 -0.633373D-02 -0.152247D-01  0.791251D-01
     10 -0.237334D-01  0.460388D-02  0.191295D-01 -0.404794D-01  0.758345D-01
     11  0.217499D-02  0.172985D-02 -0.390483D-02 -0.386457D-01 -0.353551D-01
     12  0.000000D+00  0.000000D+00  0.000000D+00  0.000000D+00  0.000000D+00
     13  0.000000D+00  0.000000D+00  0.000000D+00  0.000000D+00  0.000000D+00
     14  0.000000D+00  0.000000D+00  0.000000D+00  0.000000D+00  0.000000D+00
     15  0.000000D+00  0.000000D+00  0.000000D+00  0.000000D+00  0.000000D+00
               11            12            13            14            15 
     11  0.740008D-01
     12  0.000000D+00  0.308674D-01
     13  0.000000D+00  0.285059D-01  0.275667D-01
     14  0.000000D+00 -0.187945D-01 -0.152051D-01  0.202974D-01
     15  0.000000D+00 -0.211560D-01 -0.161442D-01  0.238868D-01  0.288986D-01
 Force constants in internal coordinates: 
                1             2             3             4             5 
      1  0.859043D+00
      2  0.794351D-01  0.473947D+00
      3  0.333213D-01  0.170954D-01  0.318579D+00
      4 -0.986583D-03  0.426130D-02  0.612318D-03  0.481348D+00
      5 -0.107173D-02  0.765095D-02 -0.328855D-03 -0.220556D-02  0.474968D+00
      6  0.317709D-01  0.201973D-01 -0.148092D-01  0.795608D-02 -0.820599D-02
      7  0.106891D-01 -0.301313D-01  0.995282D-04 -0.357757D-02  0.102501D-02
      8 -0.424600D-01  0.993395D-02  0.147097D-01 -0.437851D-02  0.718098D-02
      9  0.302676D-02  0.940809D-02  0.319807D-03  0.296325D-02 -0.101256D-01
     10  0.409421D-04  0.234703D-02  0.218581D-02 -0.880099D-02  0.702674D-02
     11 -0.306770D-02 -0.117551D-01 -0.250562D-02  0.583774D-02  0.309887D-02
     12  0.000000D+00  0.000000D+00  0.000000D+00  0.000000D+00  0.000000D+00
     13  0.000000D+00  0.000000D+00  0.000000D+00  0.000000D+00  0.000000D+00
     14  0.000000D+00  0.000000D+00  0.000000D+00  0.000000D+00  0.000000D+00
     15  0.000000D+00  0.000000D+00  0.000000D+00  0.000000D+00  0.000000D+00
                6             7             8             9            10 
      6  0.170409D+00
      7 -0.862840D-01  0.122568D+00
      8 -0.841246D-01 -0.362838D-01  0.120408D+00
      9  0.215584D-01 -0.633373D-02 -0.152247D-01  0.791251D-01
     10 -0.237334D-01  0.460388D-02  0.191295D-01 -0.404794D-01  0.758345D-01
     11  0.217499D-02  0.172985D-02 -0.390483D-02 -0.386457D-01 -0.353551D-01
     12  0.000000D+00  0.000000D+00  0.000000D+00  0.000000D+00  0.000000D+00
     13  0.000000D+00  0.000000D+00  0.000000D+00  0.000000D+00  0.000000D+00
     14  0.000000D+00  0.000000D+00  0.000000D+00  0.000000D+00  0.000000D+00
     15  0.000000D+00  0.000000D+00  0.000000D+00  0.000000D+00  0.000000D+00
               11            12            13            14            15 
     11  0.740008D-01
     12  0.000000D+00  0.308674D-01
     13  0.000000D+00  0.285059D-01  0.275667D-01
     14  0.000000D+00 -0.187945D-01 -0.152051D-01  0.202974D-01
     15  0.000000D+00 -0.211560D-01 -0.161442D-01  0.238868D-01  0.288986D-01
 Final forces over variables, Energy=-1.69888779D+02:
  3.67092772D-03 3.62372413D-03 1.90091577D-03 1.23472785D-03
  3.20441046D-04 1.91914879D-03 9.47350239D-04-2.86649902D-03
  6.40849894D-04-7.76867367D-04 1.36017472D-04-1.56761361D-13
 -3.19242476D-14-9.00735015D-14 3.47649085D-14

 GradGradGradGradGradGradGradGradGradGradGradGradGradGradGradGradGradGrad
 Berny optimization.
 Internal  Forces:  Max     0.003670928 RMS     0.001745049
 Search for a local minimum.
 Step number   1 out of a maximum of    2
 All quantities printed in internal units (Hartrees-Bohrs-Radians)
 Second derivative matrix not updated -- analytic derivatives used.
 The second derivative matrix:
                          R1        R2        R3        R4        R5
           R1           0.85904
           R2           0.07944   0.47395
           R3           0.03332   0.01710   0.31858
           R4          -0.00099   0.00426   0.00061   0.48135
           R5          -0.00107   0.00765  -0.00033  -0.00221   0.47497
           A1           0.03177   0.02020  -0.01481   0.00796  -0.00821
           A2           0.01069  -0.03013   0.00010  -0.00358   0.00103
           A3          -0.04246   0.00993   0.01471  -0.00438   0.00718
           A4           0.00303   0.00941   0.00032   0.00296  -0.01013
           A5           0.00004   0.00235   0.00219  -0.00880   0.00703
           A6          -0.00307  -0.01176  -0.00251   0.00584   0.00310
           D1           0.00000   0.00000   0.00000   0.00000   0.00000
           D2           0.00000   0.00000   0.00000   0.00000   0.00000
           D3           0.00000   0.00000   0.00000   0.00000   0.00000
           D4           0.00000   0.00000   0.00000   0.00000   0.00000
                          A1        A2        A3        A4        A5
           A1           0.17041
           A2          -0.08628   0.12257
           A3          -0.08412  -0.03628   0.12041
           A4           0.02156  -0.00633  -0.01522   0.07913
           A5          -0.02373   0.00460   0.01913  -0.04048   0.07583
           A6           0.00217   0.00173  -0.00390  -0.03865  -0.03536
           D1           0.00000   0.00000   0.00000   0.00000   0.00000
           D2           0.00000   0.00000   0.00000   0.00000   0.00000
           D3           0.00000   0.00000   0.00000   0.00000   0.00000
           D4           0.00000   0.00000   0.00000   0.00000   0.00000
                          A6        D1        D2        D3        D4
           A6           0.07400
           D1           0.00000   0.03087
           D2           0.00000   0.02851   0.02757
           D3           0.00000  -0.01879  -0.01521   0.02030
           D4           0.00000  -0.02116  -0.01614   0.02389   0.02890
 ITU=  0
     Eigenvalues ---    0.00050   0.01770   0.08943   0.10169   0.11232
     Eigenvalues ---    0.15489   0.25321   0.32366   0.46010   0.47939
     Eigenvalues ---    0.48369   0.88128
 Angle between quadratic step and forces=  37.24 degrees.
 Linear search not attempted -- first point.
 Iteration  1 RMS(Cart)=  0.00645375 RMS(Int)=  0.00004148
 Iteration  2 RMS(Cart)=  0.00004577 RMS(Int)=  0.00000000
 Iteration  3 RMS(Cart)=  0.00000000 RMS(Int)=  0.00000000
 Variable       Old X    -DE/DX   Delta X   Delta X   Delta X     New X
                                 (Linear)    (Quad)   (Total)
    R1        2.29561   0.00367   0.00000   0.00215   0.00215   2.29776
    R2        2.56634   0.00362   0.00000   0.00769   0.00769   2.57404
    R3        2.08869   0.00190   0.00000   0.00641   0.00641   2.09510
    R4        1.90431   0.00123   0.00000   0.00222   0.00222   1.90653
    R5        1.90960   0.00032   0.00000   0.00099   0.00099   1.91059
    A1        2.17518   0.00192   0.00000   0.00659   0.00659   2.18178
    A2        2.13843   0.00095   0.00000   0.00955   0.00955   2.14798
    A3        1.96958  -0.00287   0.00000  -0.01615  -0.01615   1.95343
    A4        2.12401   0.00064   0.00000   0.00195   0.00195   2.12597
    A5        2.08349  -0.00078   0.00000  -0.00328  -0.00328   2.08020
    A6        2.07568   0.00014   0.00000   0.00133   0.00133   2.07702
    D1        3.14159   0.00000   0.00000   0.00000   0.00000   3.14159
    D2        0.00000   0.00000   0.00000   0.00000   0.00000   0.00000
    D3        0.00000   0.00000   0.00000   0.00000   0.00000   0.00000
    D4        3.14159   0.00000   0.00000   0.00000   0.00000   3.14159
         Item               Value     Threshold  Converged?
 Maximum Force            0.003671     0.000450     NO 
 RMS     Force            0.001745     0.000300     NO 
 Maximum Displacement     0.012998     0.001800     NO 
 RMS     Displacement     0.006467     0.001200     NO 
 Predicted change in Energy=-6.149628D-05
 GradGradGradGradGradGradGradGradGradGradGradGradGradGradGradGradGradGrad


 Test job not archived.
 1\1\GINC-DEATHSTAR\Freq\RB3LYP\6-31G(d)\C1H3N1O1\MMCCULL\06-May-2019\0
 \\# b3lyp/6-31g* freq=(Raman) iop(7/33=1) nosymm geom=check guess=read
 \\Formamide TDC Calc\\0,1\C,0.0053092853,0.,0.084233282\O,-0.032355743
 4,0.,1.2984318597\N,1.1461737681,0.,-0.6524686729\H,-0.9077720662,0.,-
 0.538621207\H,1.1258627752,0.,-1.6599788536\H,2.0402810558,0.,-0.18159
 64082\\Version=EM64M-G09RevD.01\HF=-169.8887789\RMSD=3.599e-09\RMSF=1.
 574e-03\ZeroPoint=0.04525\Thermal=0.0493728\Dipole=0.5685973,0.,-1.397
 6288\DipoleDeriv=1.2541058,0.,-0.4370459,0.,0.3212691,0.,-0.418263,0.,
 1.5349379,-0.5688018,0.,0.0040771,0.,-0.403757,0.,0.2711653,0.,-1.2179
 099,-0.8492387,0.,0.5822939,0.,-0.6895766,0.,0.3115847,0.,-0.5033582,-
 0.1566663,0.,-0.1293139,0.,0.0576295,0.,-0.1542482,0.,-0.0959429,0.149
 8759,0.,-0.026174,0.,0.3596045,0.,-0.0000353,0.,0.14477,0.1707251,0.,0
 .0061628,0.,0.3548305,0.,-0.0102036,0.,0.1375032\Polar=22.882114,0.,9.
 6656909,-2.8186962,0.,26.9335886\PolarDeriv=3.8786682,0.,-0.2157341,3.
 2272221,0.,0.334684,0.,-0.6190657,0.,0.,-0.1890411,0.,4.7903583,0.,-0.
 5032118,3.8343783,0.,-4.4053935,-1.6371441,0.,0.3594733,3.4053974,0.,0
 .8096445,0.,-0.7836872,0.,0.,3.930054,0.,0.0076342,0.,0.6175675,-3.715
 2773,0.,10.9722161,-3.6538666,0.,0.3319425,-2.643758,0.,-0.5020409,0.,
 2.0007871,0.,0.,-1.8481638,0.,-3.2758049,0.,0.090292,-0.4916089,0.,5.2
 634411,-7.4236669,0.,-0.438497,-3.0445571,0.,-1.4958297,0.,-1.9871291,
 0.,0.,-1.1258158,0.,-3.4708476,0.,-0.2733435,-3.3563437,0.,-3.2080181,
 0.83528,0.,0.0393975,-1.6462953,0.,-0.3494524,0.,-0.0443207,0.,0.,-1.4
 197146,0.,-1.4542594,0.,0.0576473,1.8722602,0.,-9.4222947,8.0007294,0.
 ,-0.0765821,0.7019909,0.,1.2029945,0.,1.4334156,0.,0.,0.6526813,0.,3.4
 029193,0.,0.0110485,1.8565914,0.,0.8000491\HyperPolar=2.9449018,0.,0.6
 82741,0.,-5.3396254,0.,-2.5102393,-12.2730384,0.,-80.2715583\PG=CS [SG
 (C1H3N1O1)]\NImag=0\\0.68030654,0.,0.18526154,-0.00210595,0.,1.0524690
 5,-0.11527040,0.,-0.00198035,0.08806120,0.,-0.07292570,0.,0.,0.0310797
 5,-0.00480638,0.,-0.75059529,-0.03329400,0.,0.85771293,-0.33044855,0.,
 0.08324972,0.01289862,0.,0.04780964,0.79956702,0.,-0.04175820,0.,0.,0.
 01968867,0.,0.,0.01080696,0.09767636,0.,-0.19321247,0.06418029,0.,-0.0
 6538817,0.02379069,0.,0.87096051,-0.22317438,0.,-0.08938840,0.01396397
 ,0.,-0.01275793,-0.03231611,0.,-0.01465264,0.24578915,0.,-0.06072698,0
 .,0.,0.01985728,0.,0.,0.01038875,0.,0.,0.02513410,-0.09904460,0.,-0.11
 732378,-0.03015406,0.,-0.04076160,0.01425098,0.,0.01443493,0.11282940,
 0.,0.14420601,0.01472239,0.,0.03068029,-0.00627664,0.,0.00303241,-0.07
 855143,0.,-0.01251062,-0.00076018,0.,-0.00150357,0.06312616,0.,-0.0107
 4698,0.,0.,0.00828771,0.,0.,0.00502320,0.,0.,-0.00134643,0.,0.,0.00468
 961,-0.00708914,0.,-0.01262977,0.00511708,0.,0.00108346,-0.01350538,0.
 ,-0.46510803,0.00030436,0.,0.00069015,0.00980582,0.,0.48112415,-0.0261
 3560,0.,-0.02045531,0.00662324,0.,0.00001626,-0.37114955,0.,-0.1584840
 8,-0.00350246,0.,0.00362185,0.00773971,0.,0.00536725,0.38642466,0.,0.0
 0089632,0.,0.,-0.00598771,0.,0.,-0.00414938,0.,0.,0.00669328,0.,0.,-0.
 00590711,0.,0.,0.00845460,0.01536971,0.,0.02129227,-0.00386896,0.,-0.0
 0205133,-0.15559566,0.,-0.16168677,0.00366521,0.,-0.00124572,-0.029504
 32,0.,-0.00515996,0.16993403,0.,0.14885151\\0.00065515,0.,-0.00291914,
 0.00053931,0.,-0.00365514,-0.00143258,0.,0.00332799,0.00054099,0.,0.00
 258184,-0.00024225,0.,0.00123897,-0.00006063,0.,-0.00057452\\\@


 The number of Unix installations has grown to 10,
  with more expected.
                  -- The Unix Programmer's Manual,
                     2nd Edition, June, 1972.
 Job cpu time:       0 days  0 hours  0 minutes 18.6 seconds.
 File lengths (MBytes):  RWF=      5 Int=      0 D2E=      0 Chk=      1 Scr=      1
 Normal termination of Gaussian 09 at Mon May  6 14:22:30 2019.
