 Entering Gaussian System, Link 0=g09
 Initial command:
 /opt/local/share/g09/l1.exe "./Gau-25361.inp" -scrdir="./"
 Entering Link 1 = /opt/local/share/g09/l1.exe PID=     25362.
  
 Copyright (c) 1988,1990,1992,1993,1995,1998,2003,2009,2013,
            Gaussian, Inc.  All Rights Reserved.
  
 This is part of the Gaussian(R) 09 program.  It is based on
 the Gaussian(R) 03 system (copyright 2003, Gaussian, Inc.),
 the Gaussian(R) 98 system (copyright 1998, Gaussian, Inc.),
 the Gaussian(R) 94 system (copyright 1995, Gaussian, Inc.),
 the Gaussian 92(TM) system (copyright 1992, Gaussian, Inc.),
 the Gaussian 90(TM) system (copyright 1990, Gaussian, Inc.),
 the Gaussian 88(TM) system (copyright 1988, Gaussian, Inc.),
 the Gaussian 86(TM) system (copyright 1986, Carnegie Mellon
 University), and the Gaussian 82(TM) system (copyright 1983,
 Carnegie Mellon University). Gaussian is a federally registered
 trademark of Gaussian, Inc.
  
 This software contains proprietary and confidential information,
 including trade secrets, belonging to Gaussian, Inc.
  
 This software is provided under written license and may be
 used, copied, transmitted, or stored only in accord with that
 written license.
  
 The following legend is applicable only to US Government
 contracts under FAR:
  
                    RESTRICTED RIGHTS LEGEND
  
 Use, reproduction and disclosure by the US Government is
 subject to restrictions as set forth in subparagraphs (a)
 and (c) of the Commercial Computer Software - Restricted
 Rights clause in FAR 52.227-19.
  
 Gaussian, Inc.
 340 Quinnipiac St., Bldg. 40, Wallingford CT 06492
  
  
 ---------------------------------------------------------------
 Warning -- This program may not be used in any manner that
 competes with the business of Gaussian, Inc. or will provide
 assistance to any competitor of Gaussian, Inc.  The licensee
 of this program is prohibited from giving any competitor of
 Gaussian, Inc. access to this program.  By using this program,
 the user acknowledges that Gaussian, Inc. is engaged in the
 business of creating and licensing software in the field of
 computational chemistry and represents and warrants to the
 licensee that it is not a competitor of Gaussian, Inc. and that
 it will not use this program in any manner prohibited above.
 ---------------------------------------------------------------
  

 Cite this work as:
 Gaussian 09, Revision D.01,
 M. J. Frisch, G. W. Trucks, H. B. Schlegel, G. E. Scuseria, 
 M. A. Robb, J. R. Cheeseman, G. Scalmani, V. Barone, B. Mennucci, 
 G. A. Petersson, H. Nakatsuji, M. Caricato, X. Li, H. P. Hratchian, 
 A. F. Izmaylov, J. Bloino, G. Zheng, J. L. Sonnenberg, M. Hada, 
 M. Ehara, K. Toyota, R. Fukuda, J. Hasegawa, M. Ishida, T. Nakajima, 
 Y. Honda, O. Kitao, H. Nakai, T. Vreven, J. A. Montgomery, Jr., 
 J. E. Peralta, F. Ogliaro, M. Bearpark, J. J. Heyd, E. Brothers, 
 K. N. Kudin, V. N. Staroverov, T. Keith, R. Kobayashi, J. Normand, 
 K. Raghavachari, A. Rendell, J. C. Burant, S. S. Iyengar, J. Tomasi, 
 M. Cossi, N. Rega, J. M. Millam, M. Klene, J. E. Knox, J. B. Cross, 
 V. Bakken, C. Adamo, J. Jaramillo, R. Gomperts, R. E. Stratmann, 
 O. Yazyev, A. J. Austin, R. Cammi, C. Pomelli, J. W. Ochterski, 
 R. L. Martin, K. Morokuma, V. G. Zakrzewski, G. A. Voth, 
 P. Salvador, J. J. Dannenberg, S. Dapprich, A. D. Daniels, 
 O. Farkas, J. B. Foresman, J. V. Ortiz, J. Cioslowski, 
 and D. J. Fox, Gaussian, Inc., Wallingford CT, 2013.
 
 ******************************************
 Gaussian 09:  EM64M-G09RevD.01 24-Apr-2013
                 6-May-2019 
 ******************************************
 %nprocshared=2
 Will use up to    2 processors via shared memory.
 %mem=2GB
 %chk=formamide_wb97xd.opt.chk
 --------------------------------------------
 # wb97xd/6-31+g* Pop=NaturalOrbital opt freq
 --------------------------------------------
 1/14=-1,18=20,19=15,26=3,38=1/1,3;
 2/9=110,12=2,17=6,18=5,40=1/2;
 3/5=1,6=6,7=11,11=2,16=1,25=1,30=1,71=1,74=-58/1,2,3;
 4//1;
 5/5=2,38=5/2;
 6/7=2,8=2,9=2,10=2,22=-1,28=1,31=1/1;
 7//1,2,3,16;
 1/14=-1,18=20,19=15,26=3/3(2);
 2/9=110/2;
 99//99;
 2/9=110/2;
 3/5=1,6=6,7=11,11=2,16=1,25=1,30=1,71=1,74=-58/1,2,3;
 4/5=5,16=3,69=1/1;
 5/5=2,38=5/2;
 7//1,2,3,16;
 1/14=-1,18=20,19=15,26=3/3(-5);
 2/9=110/2;
 6/7=2,8=2,9=2,10=2,19=2,22=-1,28=1,31=1/1;
 99/9=1/99;
 -------------------------------
 Formamide geometry optimization
 -------------------------------
 Symbolic Z-matrix:
 Charge =  0 Multiplicity = 1
 C
 O                    1     1.3 
 N                    1     1.3      2     120. 
 H                    1     1.       2     120.     3     180.     0
 H                    3     1.       1     120.     2     180.     0
 H                    3     1.       1     120.     2     0.       0
 

 GradGradGradGradGradGradGradGradGradGradGradGradGradGradGradGradGradGrad
 Berny optimization.
 Initialization pass.
                           ----------------------------
                           !    Initial Parameters    !
                           ! (Angstroms and Degrees)  !
 --------------------------                            --------------------------
 ! Name  Definition              Value          Derivative Info.                !
 --------------------------------------------------------------------------------
 ! R1    R(1,2)                  1.3            estimate D2E/DX2                !
 ! R2    R(1,3)                  1.3            estimate D2E/DX2                !
 ! R3    R(1,4)                  1.0            estimate D2E/DX2                !
 ! R4    R(3,5)                  1.0            estimate D2E/DX2                !
 ! R5    R(3,6)                  1.0            estimate D2E/DX2                !
 ! A1    A(2,1,3)              120.0            estimate D2E/DX2                !
 ! A2    A(2,1,4)              120.0            estimate D2E/DX2                !
 ! A3    A(3,1,4)              120.0            estimate D2E/DX2                !
 ! A4    A(1,3,5)              120.0            estimate D2E/DX2                !
 ! A5    A(1,3,6)              120.0            estimate D2E/DX2                !
 ! A6    A(5,3,6)              120.0            estimate D2E/DX2                !
 ! D1    D(2,1,3,5)            180.0            estimate D2E/DX2                !
 ! D2    D(2,1,3,6)              0.0            estimate D2E/DX2                !
 ! D3    D(4,1,3,5)              0.0            estimate D2E/DX2                !
 ! D4    D(4,1,3,6)            180.0            estimate D2E/DX2                !
 --------------------------------------------------------------------------------
 Trust Radius=3.00D-01 FncErr=1.00D-07 GrdErr=1.00D-06
 Number of steps in this run=     25 maximum allowed number of steps=    100.
 GradGradGradGradGradGradGradGradGradGradGradGradGradGradGradGradGradGrad

                          Input orientation:                          
 ---------------------------------------------------------------------
 Center     Atomic      Atomic             Coordinates (Angstroms)
 Number     Number       Type             X           Y           Z
 ---------------------------------------------------------------------
      1          6           0        0.000000    0.000000    0.000000
      2          8           0        0.000000    0.000000    1.300000
      3          7           0        1.125833    0.000000   -0.650000
      4          1           0       -0.866025    0.000000   -0.500000
      5          1           0        1.125833    0.000000   -1.650000
      6          1           0        1.991858    0.000000   -0.150000
 ---------------------------------------------------------------------
                    Distance matrix (angstroms):
                    1          2          3          4          5
     1  C    0.000000
     2  O    1.300000   0.000000
     3  N    1.300000   2.251666   0.000000
     4  H    1.000000   1.997498   1.997498   0.000000
     5  H    1.997498   3.157531   1.000000   2.300000   0.000000
     6  H    1.997498   2.463737   1.000000   2.879236   1.732051
                    6
     6  H    0.000000
 Stoichiometry    CH3NO
 Framework group  CS[SG(CH3NO)]
 Deg. of freedom     9
 Full point group                 CS      NOp   2
 Largest Abelian subgroup         CS      NOp   2
 Largest concise Abelian subgroup C1      NOp   1
                         Standard orientation:                         
 ---------------------------------------------------------------------
 Center     Atomic      Atomic             Coordinates (Angstroms)
 Number     Number       Type             X           Y           Z
 ---------------------------------------------------------------------
      1          6           0        0.000000    0.447349    0.000000
      2          8           0        1.226879    0.017503    0.000000
      3          7           0       -0.985698   -0.400236    0.000000
      4          1           0       -0.185524    1.429989    0.000000
      5          1           0       -1.929451   -0.069584    0.000000
      6          1           0       -0.800173   -1.382875    0.000000
 ---------------------------------------------------------------------
 Rotational constants (GHZ):     69.3427587     11.6761256      9.9934079
 Standard basis: 6-31+G(d) (6D, 7F)
 There are    48 symmetry adapted cartesian basis functions of A'  symmetry.
 There are    15 symmetry adapted cartesian basis functions of A"  symmetry.
 There are    48 symmetry adapted basis functions of A'  symmetry.
 There are    15 symmetry adapted basis functions of A"  symmetry.
    63 basis functions,   108 primitive gaussians,    63 cartesian basis functions
    12 alpha electrons       12 beta electrons
       nuclear repulsion energy        71.3110324375 Hartrees.
 NAtoms=    6 NActive=    6 NUniq=    6 SFac= 1.00D+00 NAtFMM=   60 NAOKFM=F Big=F
 Integral buffers will be    131072 words long.
 Raffenetti 2 integral format.
 Two-electron integral symmetry is turned on.
 Nuclear repulsion after empirical dispersion term =       71.3102720513 Hartrees.
 One-electron integrals computed using PRISM.
 NBasis=    63 RedAO= T EigKep=  4.00D-03  NBF=    48    15
 NBsUse=    63 1.00D-06 EigRej= -1.00D+00 NBFU=    48    15
 ExpMin= 4.38D-02 ExpMax= 5.48D+03 ExpMxC= 8.25D+02 IAcc=2 IRadAn=         4 AccDes= 0.00D+00
 Harris functional with IExCor= 4639 and IRadAn=       4 diagonalized for initial guess.
 HarFok:  IExCor= 4639 AccDes= 0.00D+00 IRadAn=         4 IDoV= 1 UseB2=F ITyADJ=14
 ICtDFT=  3500011 ScaDFX=  1.000000  1.000000  1.000000  1.000000
 FoFCou: FMM=F IPFlag=           0 FMFlag=      100000 FMFlg1=           0
         NFxFlg=           0 DoJE=T BraDBF=F KetDBF=T FulRan=T
         wScrn=  0.000000 ICntrl=     500 IOpCl=  0 I1Cent=   200000004 NGrid=           0
         NMat0=    1 NMatS0=      1 NMatT0=    0 NMatD0=    1 NMtDS0=    0 NMtDT0=    0
 Petite list used in FoFCou.
 Initial guess orbital symmetries:
       Occupied  (A') (A') (A') (A') (A') (A') (A') (A') (A') (A")
                 (A") (A')
       Virtual   (A') (A") (A') (A') (A") (A') (A') (A") (A') (A')
                 (A') (A") (A') (A') (A') (A') (A') (A') (A") (A')
                 (A') (A') (A") (A') (A') (A') (A') (A") (A') (A')
                 (A') (A') (A") (A") (A') (A") (A") (A') (A') (A')
                 (A') (A") (A') (A') (A") (A') (A') (A') (A') (A')
                 (A')
 The electronic state of the initial guess is 1-A'.
 Keep R1 ints in memory in symmetry-blocked form, NReq=6302552.
 Requested convergence on RMS density matrix=1.00D-08 within 128 cycles.
 Requested convergence on MAX density matrix=1.00D-06.
 Requested convergence on             energy=1.00D-06.
 No special actions if energy rises.
 SCF Done:  E(RwB97XD) =  -169.825258351     A.U. after   12 cycles
            NFock= 12  Conv=0.32D-08     -V/T= 2.0086

 **********************************************************************

            Population analysis using the SCF density.

 **********************************************************************

 Orbital symmetries:
       Occupied  (A') (A') (A') (A') (A') (A') (A') (A') (A") (A')
                 (A") (A')
       Virtual   (A') (A") (A') (A') (A") (A') (A') (A") (A') (A')
                 (A') (A') (A") (A') (A') (A') (A') (A') (A") (A')
                 (A') (A') (A") (A') (A') (A') (A') (A") (A') (A')
                 (A') (A') (A") (A") (A') (A") (A') (A") (A') (A')
                 (A') (A") (A') (A') (A") (A') (A') (A') (A') (A')
                 (A')
 The electronic state is 1-A'.
     Natural Orbital Coefficients:
                           1         2         3         4         5
     Eigenvalues --     2.00000   2.00000   2.00000   2.00000   2.00000
   1 1   C  1S          0.00472  -0.00443  -0.06837   0.21242   0.13738
   2        2S         -0.00254  -0.03400  -0.13185  -0.06542   0.07589
   3        2PX        -0.00895  -0.15104  -0.39283   0.06297  -0.05906
   4        2PY         0.12019   0.18632  -0.05956   0.04316  -0.27948
   5        2PZ         0.00000   0.00000   0.00000   0.00000   0.00000
   6        3S          0.00672  -0.04818  -0.14678  -0.03527  -0.03344
   7        3PX         0.00027  -0.01624  -0.08149   0.02147  -0.01218
   8        3PY         0.01841   0.05966   0.01360   0.01315  -0.08586
   9        3PZ         0.00000   0.00000   0.00000   0.00000   0.00000
  10        4S          0.00534  -0.01922  -0.02212  -0.01803   0.00775
  11        4PX         0.00126   0.01696  -0.00301   0.01064  -0.00852
  12        4PY        -0.00296   0.00210   0.00412   0.00408  -0.00934
  13        4PZ         0.00000   0.00000   0.00000   0.00000   0.00000
  14        5XX         0.00553   0.00950  -0.01719   0.00026   0.01257
  15        5YY        -0.00367  -0.00719   0.01263  -0.00298  -0.01612
  16        5ZZ         0.00059   0.00265   0.00850   0.00308  -0.00804
  17        5XY        -0.00190   0.01188   0.02570   0.00178  -0.00655
  18        5XZ         0.00000   0.00000   0.00000   0.00000   0.00000
  19        5YZ         0.00000   0.00000   0.00000   0.00000   0.00000
  20 2   O  1S         -0.03812  -0.01749  -0.02346  -0.92124  -0.26227
  21        2S         -0.02295  -0.02445  -0.13813  -0.00796   0.10839
  22        2PX         0.03614   0.24421   0.36136   0.05285  -0.15277
  23        2PY         0.04991   0.14294  -0.17683   0.10516  -0.23135
  24        2PZ         0.00000   0.00000   0.00000   0.00000   0.00000
  25        3S         -0.01364   0.04293  -0.00529  -0.00025   0.11353
  26        3PX         0.01447   0.11666   0.15651   0.03589  -0.09283
  27        3PY         0.02984   0.10149  -0.07811   0.06709  -0.14471
  28        3PZ         0.00000   0.00000   0.00000   0.00000   0.00000
  29        4S          0.01305   0.03409   0.06008  -0.00216   0.00255
  30        4PX        -0.00493   0.00684   0.01627   0.00541  -0.01323
  31        4PY         0.00276   0.01844  -0.00920   0.01672  -0.02947
  32        4PZ         0.00000   0.00000   0.00000   0.00000   0.00000
  33        5XX        -0.00334  -0.01536  -0.01706   0.00271   0.01398
  34        5YY         0.00265   0.00615   0.00109   0.01089  -0.00996
  35        5ZZ         0.00093   0.00252   0.00490   0.00830  -0.00079
  36        5XY        -0.00263  -0.00450   0.01305  -0.00371   0.01078
  37        5XZ         0.00000   0.00000   0.00000   0.00000   0.00000
  38        5YZ         0.00000   0.00000   0.00000   0.00000   0.00000
  39 3   N  1S          0.83153  -0.50588   0.11705   0.01503  -0.02031
  40        2S          0.06028   0.04827   0.09150  -0.06456  -0.00825
  41        2PX        -0.20501  -0.22442   0.24520  -0.00718   0.00735
  42        2PY         0.10130   0.21920   0.05377  -0.09895   0.37076
  43        2PZ         0.00000   0.00000   0.00000   0.00000   0.00000
  44        3S          0.04119   0.10914   0.09302  -0.03309  -0.05672
  45        3PX        -0.10848  -0.11358   0.13043   0.00353  -0.00820
  46        3PY         0.06329   0.13702   0.01935  -0.04328   0.19397
  47        3PZ         0.00000   0.00000   0.00000   0.00000   0.00000
  48        4S         -0.01353   0.02482   0.02626   0.02954  -0.02439
  49        4PX        -0.01750  -0.02136   0.01667   0.00299   0.00058
  50        4PY         0.00827   0.02377   0.00580   0.00227   0.01428
  51        4PZ         0.00000   0.00000   0.00000   0.00000   0.00000
  52        5XX        -0.00016   0.00846  -0.01346  -0.00440   0.01457
  53        5YY        -0.00911   0.00124   0.00622   0.00104  -0.01846
  54        5ZZ        -0.00882   0.00136  -0.00330   0.00354  -0.00055
  55        5XY        -0.00403  -0.00403   0.00344  -0.00142   0.00385
  56        5XZ         0.00000   0.00000   0.00000   0.00000   0.00000
  57        5YZ         0.00000   0.00000   0.00000   0.00000   0.00000
  58 4   H  1S          0.05190   0.06853  -0.03251  -0.01761  -0.11884
  59        2S          0.02450   0.00592  -0.00023  -0.01581  -0.05607
  60 5   H  1S          0.13513   0.16468  -0.11005  -0.03815   0.07875
  61        2S          0.03458   0.01366  -0.06762  -0.01711   0.05726
  62 6   H  1S         -0.06178  -0.11259   0.03220   0.03284  -0.21521
  63        2S         -0.00972  -0.02017   0.00793   0.01297  -0.07006
                           6         7         8         9        10
     Eigenvalues --     2.00000   2.00000   2.00000   2.00000   2.00000
   1 1   C  1S          0.05511   0.00000   0.00000   0.06505  -0.11228
   2        2S          0.27607   0.00000   0.00000   0.10295   0.07731
   3        2PX        -0.12715   0.00000   0.00000  -0.01014  -0.03697
   4        2PY         0.15867   0.00000   0.00000  -0.23466   0.10563
   5        2PZ         0.00000  -0.21086   0.31230   0.00000   0.00000
   6        3S          0.14874   0.00000   0.00000  -0.04522   0.04682
   7        3PX        -0.10592   0.00000   0.00000   0.09875  -0.02753
   8        3PY         0.07658   0.00000   0.00000   0.04449   0.05848
   9        3PZ         0.00000  -0.05900   0.17661   0.00000   0.00000
  10        4S          0.05648   0.00000   0.00000  -0.07657  -0.03413
  11        4PX        -0.02492   0.00000   0.00000   0.04934   0.02959
  12        4PY        -0.00129   0.00000   0.00000   0.01936   0.01241
  13        4PZ         0.00000  -0.00335   0.03166   0.00000   0.00000
  14        5XX        -0.01515   0.00000   0.00000   0.02719   0.00388
  15        5YY         0.02047   0.00000   0.00000  -0.02594  -0.00252
  16        5ZZ        -0.01661   0.00000   0.00000  -0.00942  -0.00289
  17        5XY        -0.00928   0.00000   0.00000   0.03923  -0.00019
  18        5XZ         0.00000   0.03225   0.02847   0.00000   0.00000
  19        5YZ         0.00000   0.01472  -0.00600   0.00000   0.00000
  20 2   O  1S         -0.20889   0.00000   0.00000   0.00819   0.01686
  21        2S          0.15817   0.00000   0.00000   0.07156   0.18734
  22        2PX         0.02247   0.00000   0.00000   0.06553   0.14926
  23        2PY        -0.15430   0.00000   0.00000   0.46315   0.14762
  24        2PZ         0.00000   0.11615   0.53992   0.00000   0.00000
  25        3S          0.22115   0.00000   0.00000   0.03079   0.22793
  26        3PX        -0.01106   0.00000   0.00000   0.07147   0.08713
  27        3PY        -0.10037   0.00000   0.00000   0.30159   0.09805
  28        3PZ         0.00000   0.09111   0.34339   0.00000   0.00000
  29        4S          0.03695   0.00000   0.00000  -0.05339  -0.01181
  30        4PX         0.00095   0.00000   0.00000   0.02891   0.02320
  31        4PY        -0.03192   0.00000   0.00000   0.06689   0.01996
  32        4PZ         0.00000   0.04242   0.06118   0.00000   0.00000
  33        5XX         0.00349   0.00000   0.00000  -0.00168  -0.00905
  34        5YY        -0.00448   0.00000   0.00000   0.00589   0.00129
  35        5ZZ        -0.00330   0.00000   0.00000  -0.00082  -0.00170
  36        5XY        -0.00023   0.00000   0.00000  -0.01562  -0.00770
  37        5XZ         0.00000  -0.00026  -0.03129   0.00000   0.00000
  38        5YZ         0.00000   0.00101   0.01039   0.00000   0.00000
  39 3   N  1S         -0.08676   0.00000   0.00000  -0.03371   0.23829
  40        2S          0.15791   0.00000   0.00000   0.24331  -0.28493
  41        2PX         0.09830   0.00000   0.00000   0.19025   0.18045
  42        2PY        -0.04319   0.00000   0.00000   0.08687   0.13043
  43        2PZ         0.00000  -0.57138  -0.05039   0.00000   0.00000
  44        3S          0.08846   0.00000   0.00000   0.39584  -0.27991
  45        3PX         0.04693   0.00000   0.00000   0.10849   0.10434
  46        3PY        -0.06260   0.00000   0.00000   0.07705   0.06979
  47        3PZ         0.00000  -0.42486  -0.08166   0.00000   0.00000
  48        4S         -0.07315   0.00000   0.00000   0.14033   0.06166
  49        4PX        -0.00207   0.00000   0.00000   0.00472   0.01633
  50        4PY        -0.02561   0.00000   0.00000   0.02053   0.01671
  51        4PZ         0.00000  -0.07068  -0.04682   0.00000   0.00000
  52        5XX        -0.00228   0.00000   0.00000   0.00023  -0.01438
  53        5YY         0.01690   0.00000   0.00000  -0.00213  -0.00730
  54        5ZZ        -0.00806   0.00000   0.00000  -0.00748   0.01216
  55        5XY         0.00514   0.00000   0.00000   0.00210   0.01163
  56        5XZ         0.00000  -0.00422   0.00998   0.00000   0.00000
  57        5YZ         0.00000  -0.00770   0.00583   0.00000   0.00000
  58 4   H  1S          0.22926   0.00000   0.00000  -0.15324   0.07298
  59        2S          0.12697   0.00000   0.00000  -0.21375  -0.00945
  60 5   H  1S         -0.01753   0.00000   0.00000  -0.01884  -0.17690
  61        2S         -0.01239   0.00000   0.00000  -0.08575  -0.05120
  62 6   H  1S          0.10033   0.00000   0.00000   0.03072  -0.13736
  63        2S          0.03347   0.00000   0.00000  -0.04869  -0.00754
                          11        12        13        14        15
     Eigenvalues --     2.00000   2.00000   0.00000   0.00000   0.00000
   1 1   C  1S          0.24596   0.93713  -0.01185  -0.00668   0.03930
   2        2S          0.19918  -0.11160   0.14856   0.98056   0.06865
   3        2PX        -0.04991  -0.01816   0.00587   0.16361   0.16185
   4        2PY         0.04797   0.02473  -0.04327  -0.09266  -0.04705
   5        2PZ         0.00000   0.00000  -0.46415  -0.31936   0.19876
   6        3S          0.20635  -0.12839   0.08597  -2.64862   1.02194
   7        3PX         0.03098  -0.01721   0.04636  -0.91691   0.16927
   8        3PY         0.00075  -0.00091   0.29685   1.21089  -1.57423
   9        3PZ         0.00000   0.00000  -0.39616   0.52054  -0.22552
  10        4S         -0.01821  -0.00593   0.11570  -3.35304  -1.00516
  11        4PX        -0.00730   0.00503  -0.17236   0.33880  -2.43770
  12        4PY         0.00865  -0.00252   0.05221   1.31363   0.19060
  13        4PZ         0.00000   0.00000  -0.75705  -0.11652   0.11196
  14        5XX        -0.01550  -0.00707   0.04046  -0.25212   0.07851
  15        5YY         0.00474  -0.00623  -0.08393  -0.30044   0.13635
  16        5ZZ        -0.00824   0.00057  -0.09536  -0.09788   0.03223
  17        5XY         0.00628  -0.00003  -0.03718  -0.01253   0.12443
  18        5XZ         0.00000   0.00000   0.16571   0.18129   0.03149
  19        5YZ         0.00000   0.00000   0.37776  -0.01423   0.00136
  20 2   O  1S          0.16195   0.22134   0.04208   0.11771   0.40578
  21        2S         -0.39184   0.07870  -0.08507   0.11227   1.30878
  22        2PX        -0.17051   0.14168  -0.02986  -0.06138  -0.03881
  23        2PY         0.09458  -0.04683   0.02744  -0.15358   0.03838
  24        2PZ         0.00000   0.00000  -0.10316   0.04602  -0.01216
  25        3S         -0.49779   0.13043  -0.22946  -0.85839  -7.32149
  26        3PX        -0.07408   0.06576   0.05966  -0.42289   0.68494
  27        3PY         0.05000  -0.02126  -0.09332   0.22156  -0.18339
  28        3PZ         0.00000   0.00000   0.14041  -0.13383  -0.02223
  29        4S         -0.04256   0.02823   0.01396   2.66989   6.72501
  30        4PX        -0.00250   0.00051   0.12136  -0.30458  -1.04287
  31        4PY         0.00527   0.00074   0.02076   0.03557   0.56555
  32        4PZ         0.00000   0.00000   0.78061  -0.06328   0.01121
  33        5XX         0.01026  -0.01146   0.11010   0.43686   1.17990
  34        5YY         0.00594  -0.00162   0.09881   0.24268   1.38991
  35        5ZZ         0.00186  -0.00033   0.10748   0.32145   1.32534
  36        5XY        -0.00517   0.00400   0.08310  -0.14370   0.09524
  37        5XZ         0.00000   0.00000  -0.42480   0.22107  -0.08576
  38        5YZ         0.00000   0.00000  -0.01075  -0.12312  -0.05296
  39 3   N  1S          0.00965   0.04349  -0.01724   0.05960   0.01105
  40        2S         -0.06051  -0.03852  -0.01765  -0.07378   0.08656
  41        2PX         0.13006  -0.04695   0.02991  -0.12568  -0.02327
  42        2PY         0.10364  -0.06983   0.11153   0.14752  -0.32366
  43        2PZ         0.00000   0.00000   0.36105  -0.11094   0.06928
  44        3S         -0.09069  -0.02497   0.38488  -0.02596  -1.13311
  45        3PX         0.04994  -0.01620   0.13346   1.06599  -1.15147
  46        3PY         0.04509  -0.03048  -0.21786  -0.72778   0.59125
  47        3PZ         0.00000   0.00000  -0.28074   0.15987  -0.12357
  48        4S          0.00740   0.01167   0.00351   3.78808  -3.78785
  49        4PX         0.00472   0.00173   0.16362   1.00863  -0.37977
  50        4PY        -0.00027   0.00501  -0.14249  -0.19121  -0.70726
  51        4PZ         0.00000   0.00000   0.89011  -0.18523   0.10052
  52        5XX        -0.00381  -0.00345  -0.08080   0.32634   0.03295
  53        5YY        -0.00214   0.00080   0.02285   0.35161  -0.01194
  54        5ZZ         0.00246   0.00202  -0.22228   0.00252   0.12810
  55        5XY         0.00777  -0.00384  -0.00506   0.01091   0.04025
  56        5XZ         0.00000   0.00000   0.37216  -0.05309   0.04121
  57        5YZ         0.00000   0.00000   0.22387   0.35653  -0.11321
  58 4   H  1S          0.09336  -0.03805  -0.01747  -0.10588   0.00797
  59        2S          0.02446   0.00549  -0.20750  -0.27472   0.56494
  60 5   H  1S         -0.07042  -0.00347   0.13334   0.17916  -0.27197
  61        2S         -0.01958  -0.00269   0.01450   0.60628   0.13437
  62 6   H  1S         -0.06352   0.02414   0.00287   0.07580   0.00460
  63        2S         -0.01582   0.01531  -0.22040  -1.56918   0.89331
                          16        17        18        19        20
     Eigenvalues --     0.00000   0.00000   0.00000   0.00000   0.00000
   1 1   C  1S          0.07001  -0.03265  -0.05009   0.08311   0.03730
   2        2S         -0.04590   0.16699   0.10468   0.15962  -0.65266
   3        2PX         0.01182  -0.04524   0.04676  -0.20595   0.40702
   4        2PY         0.00183  -0.07539  -0.13824  -0.03003  -0.08516
   5        2PZ        -0.09619  -0.33406  -0.03653   0.30674   0.00984
   6        3S         -0.68662   0.30559   0.86223  -3.20338   1.69378
   7        3PX         0.34145   0.87966   0.16233   0.93295   4.79803
   8        3PY         0.84882  -0.76849  -0.87639   0.39161  -0.12046
   9        3PZ         0.09599   0.39433   0.35460  -0.31671  -0.02575
  10        4S         -1.65294   0.51489   2.49498  -6.29636  -1.20760
  11        4PX        -0.78592   0.30153  -0.34932   1.44451   1.53775
  12        4PY         0.52613  -0.30219  -0.81242   1.80295   0.33025
  13        4PZ        -0.17789   0.32991  -0.22231  -0.10223  -0.00785
  14        5XX         0.12572  -0.07248   0.17964   0.04485   0.37778
  15        5YY         0.27268  -0.05151   0.10232   0.22958   0.04262
  16        5ZZ        -0.09947   0.21298  -0.02596   0.43660   0.17635
  17        5XY        -0.03655  -0.35054  -0.08726  -0.30456  -0.12593
  18        5XZ        -0.09331   0.12344   0.01529   0.00413   0.07892
  19        5YZ         0.09228  -0.34863   0.09381   0.06906   0.00739
  20 2   O  1S          0.07279   0.05868   0.02533   0.01195   0.13571
  21        2S          0.25319   0.07505  -0.06429  -0.09242   0.44823
  22        2PX         0.13303   0.17192   0.13431   0.25145  -0.29060
  23        2PY         0.06530  -0.08553  -0.14903  -0.07080  -0.03509
  24        2PZ        -0.02679   0.31435  -0.16442  -0.24026   0.02134
  25        3S         -1.12991  -1.05589  -0.24057  -0.06612  -3.47748
  26        3PX        -0.19454   0.49788   0.46953  -0.46911   2.06826
  27        3PY        -0.10996   0.06954   0.05423   0.36954  -0.88978
  28        3PZ         0.16957  -0.45605  -0.04892   0.20188  -0.01313
  29        4S          1.31300  -0.40987  -0.60758   0.96970  -4.11147
  30        4PX         0.00198  -0.41042  -0.02542   0.07779   1.28878
  31        4PY         0.00646  -0.10517   0.10962  -0.52461  -0.87997
  32        4PZ        -0.14477   0.00925   0.22048   0.07429  -0.02204
  33        5XX         0.32240   0.17489   0.22411   0.02245   0.13102
  34        5YY         0.35605   0.17234  -0.04074  -0.12400   0.38237
  35        5ZZ         0.29592   0.16557  -0.09415   0.06296   0.44336
  36        5XY         0.27429   0.18823  -0.21333  -0.26614   0.33853
  37        5XZ         0.12956   0.07660   0.05183  -0.11700   0.02599
  38        5YZ        -0.02254   0.15222  -0.27259   0.02341  -0.08608
  39 3   N  1S         -0.01660  -0.05721   0.02527   0.09692  -0.12529
  40        2S          0.01190   0.15206  -0.34514  -0.08841  -0.15319
  41        2PX         0.20714   0.08448   0.20313   0.02131   0.07644
  42        2PY         0.04524  -0.11589  -0.14504   0.05537  -0.23205
  43        2PZ        -0.05284   0.12661  -0.03786  -0.08908  -0.01622
  44        3S          0.58094   0.52466   0.06045  -0.06870   3.04202
  45        3PX         0.28348  -0.44067  -0.43192  -0.08192   0.01836
  46        3PY         0.20436   0.52494  -0.00792   0.81840   2.26766
  47        3PZ         0.09559  -0.13939   0.00585   0.03068   0.03601
  48        4S          1.06462  -0.55274  -3.76666   9.27409   4.29621
  49        4PX         0.58105  -0.82692  -0.89667   0.76639  -0.08095
  50        4PY        -0.26275   0.62623  -0.00778   1.17287   1.40881
  51        4PZ         0.00601  -0.27621  -0.18735   0.19138   0.04468
  52        5XX         0.19931  -0.34195   0.23906   0.39903  -0.12683
  53        5YY        -0.15680  -0.14726  -0.19990   0.18919  -0.27574
  54        5ZZ        -0.14432  -0.40333  -0.15476  -0.01428  -0.32023
  55        5XY        -0.35557  -0.17439   0.06774  -0.17607   0.15813
  56        5XZ         0.12448   0.05573  -0.01490  -0.09667  -0.05098
  57        5YZ         0.34494   0.04253  -0.22135  -0.21207   0.01697
  58 4   H  1S          0.26611  -0.18806   0.08039   0.07010   0.14751
  59        2S         -0.72179   0.55291   0.55579   0.08490   0.24700
  60 5   H  1S          0.07738   0.03954   0.01393  -0.11544  -0.00865
  61        2S          0.10644  -0.68354   0.31517  -1.57344  -1.82974
  62 6   H  1S         -0.04400   0.17762  -0.05748   0.21153   0.23448
  63        2S         -0.08013   0.54952   0.80321  -0.34059   0.78796
                          21        22        23        24        25
     Eigenvalues --     0.00000   0.00000   0.00000   0.00000   0.00000
   1 1   C  1S         -0.08319  -0.00785  -0.01407   0.15303  -0.05244
   2        2S         -0.12868   0.11809   0.13991  -0.91710   0.88638
   3        2PX        -0.06865   0.09559   0.01888   0.30029  -0.09342
   4        2PY        -0.12234  -0.25722  -0.19982  -0.03263  -0.13395
   5        2PZ         0.43981  -0.15238   0.05102  -0.02735   0.02470
   6        3S          0.88104   1.10863   0.27197   0.12646  -1.69589
   7        3PX        -0.58279  -0.31758   0.22650  -1.58240   0.34820
   8        3PY         0.85442  -0.70146  -0.03059  -0.62176   0.56864
   9        3PZ        -0.66191   0.29051  -0.28442  -0.06258   0.13530
  10        4S          1.80427  -1.48818   0.24948   0.15010   0.86521
  11        4PX        -1.19902   0.76429  -0.21405   0.27162   0.24877
  12        4PY        -0.00545   0.27630   0.16354  -0.19082  -0.27958
  13        4PZ        -0.03004  -0.00820   0.32983   0.02493  -0.02632
  14        5XX        -0.30578  -0.12838   0.07325   0.22809  -0.45828
  15        5YY        -0.18676   0.04803  -0.22560   0.67948  -0.10997
  16        5ZZ        -0.06799  -0.29973  -0.34398   0.44548  -0.31844
  17        5XY         0.01496  -0.04811  -0.11636   0.25110  -0.00326
  18        5XZ         0.02760  -0.32485   0.02141  -0.26019   0.09824
  19        5YZ         0.12994  -0.03347   0.13254  -0.07420   0.06831
  20 2   O  1S         -0.11849  -0.14520  -0.01081   0.09889  -0.06247
  21        2S         -0.11845   0.60559   0.27911  -0.64661   0.19409
  22        2PX         0.17766  -0.14508  -0.06006  -0.21428  -0.06689
  23        2PY        -0.01159  -0.19000   0.02395   0.05987   0.42621
  24        2PZ        -0.06665  -0.02530  -0.01571   0.03637  -0.09544
  25        3S          1.67570   0.01392  -0.46602   0.63942   0.35765
  26        3PX        -0.65247   0.15813   0.18869   0.01673  -0.13299
  27        3PY        -0.10270   0.29617  -0.06682   0.34475  -0.24771
  28        3PZ         0.28334  -0.07092   0.11495   0.07270  -0.03381
  29        4S         -1.05491  -0.33544  -0.33044   0.89074   0.56869
  30        4PX         0.98022   0.31353   0.20841  -0.36951  -0.81993
  31        4PY         0.46533   0.06047  -0.02135  -0.28112  -0.52193
  32        4PZ        -0.16653   0.20314  -0.22878  -0.01646   0.03482
  33        5XX        -0.21309  -0.33976   0.10799   0.18690  -0.31064
  34        5YY        -0.49390  -0.48706  -0.03361   0.22473  -0.03558
  35        5ZZ        -0.35145  -0.35154   0.08163   0.22014  -0.06277
  36        5XY         0.23769   0.16986   0.01437   0.05135  -0.16016
  37        5XZ        -0.02809  -0.25029  -0.12576  -0.28906  -0.00662
  38        5YZ        -0.27989   0.09370   0.59618   0.00901  -0.15205
  39 3   N  1S         -0.00649   0.04347   0.02422   0.08297  -0.27052
  40        2S         -0.22090   0.56832  -0.28756  -0.03244   0.41757
  41        2PX        -0.08466   0.13318   0.11293   0.23589   0.20564
  42        2PY        -0.16662  -0.22603  -0.02708  -0.09795  -0.34818
  43        2PZ        -0.03422   0.08137  -0.23456  -0.02848  -0.07733
  44        3S          0.65322  -2.32753   0.26771  -1.80539   3.01092
  45        3PX         0.73107  -1.02564  -0.00528  -0.53108  -0.27032
  46        3PY        -0.60881   0.43305  -0.02033  -0.42164   0.82232
  47        3PZ         0.04108  -0.14138   0.26376   0.00529   0.04564
  48        4S         -1.84204   2.07213  -0.28884  -0.67851  -1.44340
  49        4PX         1.22130   0.37481   0.07451  -0.73545  -0.81842
  50        4PY        -1.08871   0.60602  -0.06922   0.52875   0.43668
  51        4PZ         0.41837  -0.29776   0.09683  -0.02420  -0.05468
  52        5XX         0.00653   0.10531   0.22065   0.00873  -0.79481
  53        5YY         0.07631   0.24385  -0.03825   0.42827  -0.58134
  54        5ZZ        -0.12315   0.08101   0.02582   0.20843  -1.04397
  55        5XY        -0.22168  -0.11955   0.13813  -0.18799   0.04373
  56        5XZ        -0.06582   0.04970  -0.29075  -0.21235  -0.11991
  57        5YZ        -0.00881  -0.24129   0.13864   0.01373   0.04091
  58 4   H  1S         -0.09933   0.19796   0.17541   0.00999  -0.04305
  59        2S         -0.68884  -0.00133   0.19464   0.21319   0.07587
  60 5   H  1S          0.02549  -0.06397  -0.06120   0.02606   0.11945
  61        2S          1.41556  -0.50455   0.13564  -0.04734  -1.10174
  62 6   H  1S          0.03150  -0.04565   0.00347  -0.10372  -0.08125
  63        2S         -1.29934   1.04052   0.02115   0.35706   0.37776
                          26        27        28        29        30
     Eigenvalues --     0.00000   0.00000   0.00000   0.00000   0.00000
   1 1   C  1S          0.03917   0.04865  -0.35761   0.07813   0.13603
   2        2S         -0.17784   0.08386   2.31580   0.55321  -0.10990
   3        2PX         0.22018  -0.00302  -0.25924  -0.10720  -0.05467
   4        2PY        -0.08935  -0.38493  -0.04235  -0.28068  -0.15056
   5        2PZ        -0.02826   0.05429   0.05027   0.02982   0.02475
   6        3S          1.45631  -1.18660   0.45360  -2.10258  -0.20819
   7        3PX         0.83245  -1.01586   0.58434   0.35157  -0.75766
   8        3PY        -1.08828   1.70840  -0.01599   0.00338   0.28272
   9        3PZ        -0.13921  -0.00857  -0.18396   0.05487  -0.02037
  10        4S         -0.06561  -0.17965   0.16262   0.69326  -0.46271
  11        4PX         0.04365   0.00423   0.04757   0.23205  -0.39429
  12        4PY        -0.04007   0.29342   0.26556  -0.73964   1.14730
  13        4PZ         0.04098   0.11227   0.03734   0.04596   0.14592
  14        5XX         0.55561  -0.19525  -1.62105   0.96047   0.78697
  15        5YY         0.45248   0.21431  -1.34975   0.32896   0.05357
  16        5ZZ        -0.26467   0.03345  -1.27144   0.13753   0.64674
  17        5XY        -0.29358  -0.21975   0.11672   0.51249   0.22807
  18        5XZ        -0.12739   0.34359  -0.10881   0.17065   0.09160
  19        5YZ        -0.09031   0.04877  -0.09656   0.01237  -0.08403
  20 2   O  1S         -0.04290   0.02728   0.02099  -0.03688  -0.08176
  21        2S          0.12948  -0.09289  -0.13000   0.06798   0.31043
  22        2PX         0.31848  -0.18282  -0.02861   0.15545   0.00540
  23        2PY         0.28018  -0.27090  -0.11552  -0.05070  -0.22145
  24        2PZ         0.17893   0.07077   0.10202  -0.05694   0.10679
  25        3S         -0.59914   0.58499  -0.07485   0.24699   0.48257
  26        3PX         0.53802  -0.33528  -0.47606  -0.07945   0.03700
  27        3PY        -0.83142   0.60980   0.41949  -0.31256   0.51583
  28        3PZ         0.00670  -0.17709   0.03840  -0.06918  -0.15836
  29        4S         -1.07122   1.21138  -0.01241   0.25735   0.00923
  30        4PX         0.47714  -0.40835   0.30505  -0.20204   0.17312
  31        4PY         0.58809  -0.28663  -0.58069   0.34785  -0.79753
  32        4PZ        -0.11527  -0.02556  -0.09171  -0.00749  -0.02901
  33        5XX        -0.44799   0.10312   0.44431  -0.45862  -0.25211
  34        5YY        -0.06660   0.04000   0.06673  -0.17430  -0.17467
  35        5ZZ        -0.32275   0.29472  -0.17203   0.03253  -0.23969
  36        5XY        -0.08899  -0.02111  -0.22295   0.37730   0.16457
  37        5XZ        -0.14485   0.15648  -0.09275   0.08861  -0.07346
  38        5YZ        -0.15725  -0.25154  -0.06259   0.13249  -0.10808
  39 3   N  1S         -0.00444  -0.18463   0.06716  -0.00950  -0.00103
  40        2S          0.34120   0.56199  -0.45686  -0.61994   0.04926
  41        2PX        -0.12900  -0.17912   0.27209  -0.35589   0.10653
  42        2PY         0.16333   0.19538  -0.07403  -0.46408   0.08502
  43        2PZ         0.09330   0.04804   0.06675  -0.01244   0.08988
  44        3S         -1.05462   1.48111   0.41089   1.56061  -0.45357
  45        3PX        -0.95139   0.85725  -0.47042  -0.15112  -0.46780
  46        3PY        -0.17906  -0.58090   0.78740   0.33993  -1.14943
  47        3PZ        -0.07546  -0.02512  -0.07657  -0.02163  -0.12778
  48        4S          0.78830   0.12713   0.38001  -0.83158   0.95637
  49        4PX         0.38657  -0.20100  -0.56198  -0.49654   1.30868
  50        4PY         0.69917  -0.57971   0.22451   0.42314   0.02438
  51        4PZ         0.08183   0.06141   0.10261   0.00703   0.01481
  52        5XX         0.02868  -0.51003  -0.01182  -0.26331   0.03414
  53        5YY        -0.00019  -0.60346   0.28500  -0.05651  -0.37406
  54        5ZZ         0.04128  -0.28193   0.40168  -0.05272   0.12513
  55        5XY        -0.12927   0.03490  -0.00333  -0.54243  -0.32167
  56        5XZ        -0.03275  -0.02792   0.02297   0.12233   0.02130
  57        5YZ         0.16952   0.07582   0.08762   0.04600   0.05144
  58 4   H  1S         -0.02531   0.27972   0.46184   0.27672   0.27529
  59        2S          0.05647  -1.26348  -0.43934   0.06257  -0.88811
  60 5   H  1S         -0.62086  -0.33329   0.08604  -0.44662  -0.09078
  61        2S         -0.06259   0.60499  -1.12522  -0.10757   0.46773
  62 6   H  1S         -0.10002   0.01225  -0.09597   0.00671  -0.25836
  63        2S          0.49834  -1.10356   0.68412  -0.05753  -0.37037
                          31        32        33        34        35
     Eigenvalues --     0.00000   0.00000   0.00000   0.00000   0.00000
   1 1   C  1S         -0.14577  -0.10848   0.00362  -0.04162   0.03139
   2        2S          0.77997   0.06412  -0.14189   0.04480  -0.66599
   3        2PX        -0.34440   0.01050   0.09899   0.55737  -0.14717
   4        2PY         0.04357   0.57535   0.36299  -0.13128  -0.38888
   5        2PZ         0.02150   0.03934   0.01132   0.02250  -0.01766
   6        3S          2.28600  -0.77278   1.27403   0.01758   0.78462
   7        3PX        -0.45545  -0.66223   0.53125  -0.62541   0.28420
   8        3PY        -0.01045  -0.05896  -1.96236   0.26006   0.23127
   9        3PZ         0.00281  -0.08071  -0.00775  -0.00714  -0.03113
  10        4S         -0.68386   0.07386   0.34383   0.73808  -0.27684
  11        4PX        -0.11280   0.21693  -0.51494  -0.65629   0.21467
  12        4PY         0.63522   0.00725   0.35338  -1.12764   1.06789
  13        4PZ        -0.00687   0.04192  -0.06545   0.06994   0.05182
  14        5XX        -0.59229  -0.11300   0.01017   0.10219   0.33989
  15        5YY        -0.65684  -0.42283   0.58566  -0.15168  -0.18427
  16        5ZZ        -0.20332  -0.47157  -0.03938  -0.21225   0.12321
  17        5XY         0.23485   0.53945  -0.11607  -0.25083   0.04099
  18        5XZ        -0.01948   0.01369   0.12720   0.06893  -0.08392
  19        5YZ        -0.00924  -0.03299   0.05818  -0.01865  -0.09565
  20 2   O  1S          0.00505  -0.04599  -0.01185  -0.01592  -0.06318
  21        2S          0.02192  -0.15542   0.40378   0.12538  -0.19699
  22        2PX        -0.18463  -0.06228  -0.13196   0.19504  -0.10294
  23        2PY         0.36201  -0.17908  -0.13425  -0.15713  -0.01235
  24        2PZ        -0.05294   0.03350  -0.07699   0.03190   0.07340
  25        3S          0.00431   1.01852  -1.24156   0.05084   0.58846
  26        3PX        -0.21207  -0.36152   0.79350  -0.00766   0.48376
  27        3PY        -0.48088   0.34545   0.24924   0.16753   0.16119
  28        3PZ         0.01961  -0.01518   0.06658  -0.07475  -0.03707
  29        4S         -0.50205   0.77354  -0.57862   0.06858  -0.08944
  30        4PX         0.89499  -0.51936   0.55248   0.26169  -0.75586
  31        4PY        -0.00504  -0.05429   0.25474   0.30865  -0.45877
  32        4PZ         0.03263  -0.03336  -0.04718  -0.00638   0.00400
  33        5XX         0.26277   0.40297  -0.30940  -0.44516  -0.14885
  34        5YY         0.13569  -0.58170   0.10809   0.40666  -0.18001
  35        5ZZ        -0.12908  -0.14158  -0.04387  -0.18121  -0.46008
  36        5XY         0.07545  -0.01064  -0.18792  -0.00918  -0.13888
  37        5XZ        -0.01025  -0.06886   0.08560   0.00499  -0.06359
  38        5YZ         0.08384  -0.03425   0.05599  -0.01994   0.02108
  39 3   N  1S          0.04443  -0.18846   0.01242   0.05299   0.08208
  40        2S          0.73454   0.25445   0.46550  -0.22203   0.15830
  41        2PX        -0.12846  -0.38970   0.09334  -0.13592  -0.20096
  42        2PY         0.25929  -0.16246  -0.02501   0.04851  -0.27170
  43        2PZ        -0.02296   0.02172  -0.09580   0.04142   0.06281
  44        3S         -2.40950   1.14605  -1.97996  -0.06640  -1.17806
  45        3PX        -0.26302   0.85966  -0.25105   0.27549   0.37414
  46        3PY        -0.39981   0.46863   0.54917   0.20362   0.19125
  47        3PZ         0.00362  -0.03601   0.11600  -0.05797  -0.07645
  48        4S          0.88802  -0.67054   0.11258  -0.57696   1.32139
  49        4PX         0.59140  -0.99506   0.73813   0.06533   0.19320
  50        4PY        -0.51261   0.24760  -0.30555   0.50765  -0.94783
  51        4PZ        -0.01372   0.05523   0.07058   0.00552  -0.01267
  52        5XX         0.40223  -0.11423  -0.62493   0.53599   0.38131
  53        5YY        -0.43609  -0.68024   0.02454  -0.17387   0.31864
  54        5ZZ         0.16792  -0.76454   0.08982   0.06901   0.05319
  55        5XY        -0.18766   0.11256   0.27974   0.28466   0.04232
  56        5XZ         0.00201  -0.02075  -0.06088   0.04707   0.02868
  57        5YZ        -0.05708   0.04011   0.13601   0.00404  -0.03662
  58 4   H  1S          0.03698   0.01317   0.01656   0.01936   0.87318
  59        2S         -0.57669  -0.13905   0.18358  -0.25601  -1.28402
  60 5   H  1S         -0.43345  -0.05468   0.50676   0.15064  -0.03711
  61        2S          1.15916  -0.37719   0.62647  -0.67096   0.68975
  62 6   H  1S          0.91357  -0.06169   0.50959   0.58506   0.32764
  63        2S         -0.49157   0.54016   0.28442  -0.24438  -1.18718
                          36        37        38        39        40
     Eigenvalues --     0.00000   0.00000   0.00000   0.00000   0.00000
   1 1   C  1S          0.03846  -0.06237   0.04833   0.07105   0.02484
   2        2S         -0.03862   0.48410   0.34254   0.18175   0.29896
   3        2PX        -0.06895   0.95784  -0.20552   0.31601   0.04814
   4        2PY        -0.05895   0.17703  -0.01713   0.39210   0.00232
   5        2PZ        -0.05710   0.02314  -0.04013   0.00739  -0.05800
   6        3S         -0.00720  -0.12411  -0.02756  -2.01844  -0.10075
   7        3PX         0.88528  -0.19709  -0.09537  -0.83189   0.30603
   8        3PY         0.25242  -0.44384  -0.89876   1.59485  -1.03924
   9        3PZ         0.02586  -0.02336   0.03583   0.03719   0.10353
  10        4S          0.82352   0.53106   0.50213   1.26405   0.10212
  11        4PX        -0.06792  -0.00533  -0.27427   0.44531  -0.52022
  12        4PY         0.24484   0.98909  -0.57536  -0.04916  -0.00732
  13        4PZ        -0.06785   0.02061  -0.00451  -0.07607  -0.01947
  14        5XX         0.57421  -0.17896  -0.08223  -0.06399   0.26731
  15        5YY         0.49201  -0.20799   0.33705  -0.26879  -0.27771
  16        5ZZ        -0.22357  -0.07758   0.05164   0.29892   0.15113
  17        5XY        -0.24800  -0.31628   0.40686  -0.23503  -0.01098
  18        5XZ        -0.17418   0.07262   0.04792  -0.05945  -0.09063
  19        5YZ         0.02363   0.01398   0.01040   0.05701  -0.05840
  20 2   O  1S         -0.04238  -0.01132   0.10155  -0.00540   0.08754
  21        2S          0.07274  -0.14971  -0.02845   0.02523   0.03534
  22        2PX         0.01930  -0.00933  -0.15870  -0.05840   0.18382
  23        2PY        -0.12807  -0.05682   0.06728   0.13445   0.09720
  24        2PZ         0.00265   0.00556   0.02722  -0.08899   0.00630
  25        3S         -0.29655   0.42418  -0.70925   0.48749  -0.87281
  26        3PX         0.51867   0.69326   0.31009  -0.53952  -0.14408
  27        3PY         0.14139   0.04751  -0.25924  -0.34801  -0.19785
  28        3PZ         0.07655  -0.01879  -0.02331   0.07678  -0.01502
  29        4S          0.53590  -0.29125  -1.12138   1.96299  -1.21861
  30        4PX        -0.56675  -0.23084  -0.07209  -1.38567   1.42569
  31        4PY        -0.89482  -0.25763   0.79272   0.26595   0.37965
  32        4PZ         0.00804  -0.02079  -0.02187   0.05357   0.04087
  33        5XX        -0.47954  -0.60262   0.68673   0.15383  -0.05358
  34        5YY        -0.43637   0.16141   0.07235  -0.03965   0.23739
  35        5ZZ         0.11386   0.03355   0.46874  -0.02315   0.71499
  36        5XY         0.21320   0.17141  -0.08751   0.25851   0.03077
  37        5XZ        -0.10477   0.06935  -0.00254   0.01877   0.00019
  38        5YZ        -0.01037   0.01251  -0.05256   0.01945  -0.00428
  39 3   N  1S          0.06281   0.01243   0.07030  -0.01862  -0.00311
  40        2S          0.05663  -0.32295   0.13172  -0.43932   0.68619
  41        2PX        -0.11878   0.03640   0.12492   0.38532  -0.06583
  42        2PY        -0.04652  -0.12818  -0.13975   0.24214  -0.16102
  43        2PZ        -0.00533   0.01189  -0.00929  -0.06587  -0.00054
  44        3S         -0.12302   0.28216  -1.44211   2.19219  -1.19264
  45        3PX        -0.10183   0.04753  -1.59386   0.25902   0.16931
  46        3PY         0.55010   1.26197   0.27822   0.09110  -0.19300
  47        3PZ         0.01851  -0.00741   0.02607   0.07265  -0.01041
  48        4S         -0.87895  -0.94218   0.84537  -1.01641   1.84064
  49        4PX        -0.96578  -0.06222   1.27314  -1.49487   0.47444
  50        4PY        -0.28044  -1.40533  -0.16523   0.27799  -0.08895
  51        4PZ        -0.04191   0.02881   0.00348  -0.04129  -0.08720
  52        5XX         0.25944   0.50485   0.24724   0.39186   0.00755
  53        5YY        -0.28811   0.21228  -0.00922  -0.11216   0.15586
  54        5ZZ         0.50556  -0.17387   0.20770  -0.02269  -0.00933
  55        5XY        -0.14309   0.14807  -0.24672   0.18507   0.00672
  56        5XZ        -0.03727   0.06324  -0.04960  -0.05246  -0.01272
  57        5YZ        -0.00183   0.01429   0.07548  -0.09986  -0.04296
  58 4   H  1S         -0.72914  -0.06841  -0.15621   0.39366   0.36208
  59        2S          0.47817   0.37364   0.45009  -2.16699   0.78561
  60 5   H  1S          0.06260  -0.60985  -0.46468   0.20803   0.45461
  61        2S         -0.58905   0.44694  -0.30078  -1.56521  -0.64568
  62 6   H  1S          0.54652  -0.05599   0.47395   0.04265  -0.26103
  63        2S          0.03777   0.55181  -0.48081  -0.12248  -0.37932
                          41        42        43        44        45
     Eigenvalues --     0.00000   0.00000   0.00000   0.00000   0.00000
   1 1   C  1S         -0.04367   0.01974  -0.06107  -0.02525  -0.12263
   2        2S          1.07874   0.33460   0.39729   0.56983   0.25288
   3        2PX         0.46555  -0.20526   0.39504  -0.22862   0.01051
   4        2PY        -0.32918   0.29758   0.45952   0.16506  -0.50298
   5        2PZ         0.00548   0.06371  -0.05038  -0.08652   0.01680
   6        3S         -0.10694  -0.76985   0.44198  -1.44086   4.90302
   7        3PX        -0.74986   0.37210   1.56393   0.59172  -0.07490
   8        3PY         0.84140   0.21611  -2.25444  -0.68281  -1.10297
   9        3PZ         0.00235  -0.00161   0.10403   0.11408  -0.00065
  10        4S         -1.41385   0.58366   0.70020   0.54823   1.62840
  11        4PX        -0.86630  -0.85456  -0.50125  -0.26445   0.02354
  12        4PY        -0.05285  -0.41685  -0.94446   0.09565  -0.31759
  13        4PZ         0.04439  -0.04359  -0.04308  -0.03955  -0.22374
  14        5XX        -0.00716  -0.48567  -0.07764  -0.51987   0.27838
  15        5YY        -0.30536   0.24111  -0.81096   0.12798  -0.44366
  16        5ZZ        -0.19945   0.15396  -0.19234  -0.13717  -0.63575
  17        5XY         0.02332  -0.09939  -0.39763  -0.06562   0.03989
  18        5XZ         0.03046   0.06228   0.03086  -0.18253  -0.04144
  19        5YZ        -0.06705   0.05744   0.08585   0.05136   0.13306
  20 2   O  1S         -0.14240  -0.04052  -0.05449   0.04353   0.13361
  21        2S         -0.10010   0.12449  -0.02315  -0.40338  -0.26281
  22        2PX        -0.29170  -0.37990   0.15907  -0.17712   0.00222
  23        2PY         0.18688  -0.06374  -0.15748   0.00795  -0.18755
  24        2PZ         0.03055  -0.12990  -0.03497  -0.01440  -0.18424
  25        3S          1.52505   0.19667  -0.54805   0.47970  -1.54400
  26        3PX         0.89750   0.19394   0.49875   0.07978   1.16285
  27        3PY        -0.69265   0.17755   0.13845   0.36474  -0.02255
  28        3PZ        -0.05739   0.06590   0.00123   0.01328   0.24214
  29        4S          1.31181   0.18929  -0.94331  -0.87294  -1.09575
  30        4PX        -0.60968   0.17911   0.36550   0.10461  -0.06154
  31        4PY         0.82368   0.00743   0.13353  -0.18668  -0.06639
  32        4PZ         0.01313   0.00847   0.00773   0.10543   0.01625
  33        5XX        -0.86138   0.12251  -0.46613   0.07801  -0.12234
  34        5YY        -0.69827   0.07509  -0.39354   0.14704   0.45491
  35        5ZZ        -0.26282  -0.49973  -0.05852   0.28941   0.36249
  36        5XY         0.22018  -0.06406   0.17773  -0.05677   0.18785
  37        5XZ        -0.01872   0.13568  -0.00282  -0.09239   0.19938
  38        5YZ        -0.04356   0.18516  -0.03036   0.06197   0.12547
  39 3   N  1S          0.02485   0.00217   0.01124  -0.02097  -0.02775
  40        2S         -0.02244   0.15655   0.19507  -0.43111   0.62781
  41        2PX        -0.00688  -0.02425   0.51795  -0.39660  -0.11658
  42        2PY         0.08074   0.08037   0.25563   0.15397  -0.01723
  43        2PZ         0.00377  -0.05139  -0.02650   0.01993  -0.19289
  44        3S         -0.17255   0.29455  -0.59442   1.34499  -2.45834
  45        3PX         0.42512   0.16090  -0.97086   0.25159  -1.32301
  46        3PY        -0.90635  -0.43360   0.59757   0.24096  -0.79855
  47        3PZ        -0.01631   0.03250   0.03830  -0.00849   0.25453
  48        4S          0.48695  -0.35209  -1.36988  -0.74852  -2.09762
  49        4PX         0.31122   0.18019   0.45444   0.46966  -0.07991
  50        4PY        -0.10423   0.13614   0.25259   0.38083   0.47242
  51        4PZ        -0.00530   0.01928  -0.04155  -0.13860   0.02363
  52        5XX        -0.17237   0.24480   0.46661   0.01312  -0.25066
  53        5YY         0.01109   0.60245   0.15774   0.06416  -0.27198
  54        5ZZ         0.18487  -0.21798  -0.06384   0.00432  -0.13678
  55        5XY        -0.02454  -0.13113   0.27741   0.19082  -0.51698
  56        5XZ        -0.05935   0.13147  -0.02558   0.02114  -0.04798
  57        5YZ        -0.03469  -0.01269   0.07504  -0.19956  -0.11253
  58 4   H  1S          0.00440  -0.43249   0.34154   0.31364   0.13752
  59        2S         -0.65209   0.22827   1.89829   0.48693  -0.85300
  60 5   H  1S          0.49883  -0.31279  -0.70524  -0.21528  -0.13626
  61        2S         -0.05444  -0.01448   0.81987   0.07524   0.14437
  62 6   H  1S         -0.19321  -0.63056   0.32749   0.12311  -0.27482
  63        2S         -0.50804  -0.33539   0.04748  -0.01292   1.21377
                          46        47        48        49        50
     Eigenvalues --     0.00000   0.00000   0.00000   0.00000   0.00000
   1 1   C  1S         -0.01701   0.15223   0.07906  -0.00624  -0.04087
   2        2S         -0.13915   0.26521  -0.33506  -0.38610  -0.36327
   3        2PX        -0.42592  -0.06199  -0.06898   0.20269   0.04685
   4        2PY         0.18877  -0.07440  -0.14940  -0.19192   0.13667
   5        2PZ         0.02587   0.08904  -0.19999  -0.17452  -0.12279
   6        3S          0.98091  -4.89176   0.18361  -0.43003   2.06670
   7        3PX         0.49082   0.46538   0.65702  -0.61704   0.07068
   8        3PY        -0.39349  -0.09690  -2.07818   1.73795  -1.25986
   9        3PZ        -0.08156  -0.09313   0.16961   0.12871   0.38824
  10        4S          0.35361   0.26655   2.31221   0.62208   0.28340
  11        4PX        -0.07705  -0.58431  -0.35686  -0.87856   0.04873
  12        4PY        -0.22851  -0.61377  -1.25908   0.31585  -0.04768
  13        4PZ         0.10124  -0.05844  -0.10440  -0.09530   0.09015
  14        5XX        -0.09645   0.46940   0.03120  -0.37089  -0.06580
  15        5YY        -0.08951   0.00731   0.01061   0.06355  -0.01100
  16        5ZZ        -0.16797   0.43282   0.37224   0.26489  -0.32037
  17        5XY        -0.14636   0.00827   0.20899   0.21221  -0.09196
  18        5XZ        -0.08385  -0.23588   0.00979  -0.11401   0.47689
  19        5YZ        -0.14765  -0.00150   0.16301   0.28331   0.06445
  20 2   O  1S          0.02504   0.00310  -0.02389  -0.06585   0.00468
  21        2S          0.02625  -0.35777   0.76766   0.01399   0.02770
  22        2PX        -0.45904  -0.05921  -0.28611   0.23140   0.01988
  23        2PY        -0.00271   0.04480   0.09909  -0.11446   0.38366
  24        2PZ         0.09914  -0.09680   0.07163  -0.02844  -0.02703
  25        3S         -0.50724   0.86234  -1.67353   1.06340  -0.53781
  26        3PX         0.42573  -0.25096   0.74056  -0.81062   0.37082
  27        3PY        -0.03363  -0.11105   0.03856  -0.06971  -0.20624
  28        3PZ        -0.05606   0.14890   0.00895   0.08174  -0.32816
  29        4S         -0.83509   0.87158   0.41512   1.11554  -0.87012
  30        4PX         0.51099  -0.25398  -0.49259  -0.07995   0.49601
  31        4PY         0.36899   0.79020   0.28760   0.08929  -0.10844
  32        4PZ        -0.04228   0.02133   0.00409   0.01266   0.10455
  33        5XX        -0.26354   0.07614  -0.09258  -0.17933   0.12736
  34        5YY         0.21515   0.06533   0.07821  -0.30333  -0.22631
  35        5ZZ         0.36672  -0.38229   0.05792  -0.01411  -0.05143
  36        5XY        -0.31249   0.05091  -0.14019  -0.42233  -0.03836
  37        5XZ        -0.06322  -0.08911   0.02490  -0.05182   0.24745
  38        5YZ         0.01074   0.11915  -0.20349   0.28347   0.02328
  39 3   N  1S         -0.01082  -0.21173   0.04009  -0.11423   0.10235
  40        2S         -0.45078   0.20776  -0.49322   0.00760  -0.21764
  41        2PX         0.13974   0.00070  -0.27752   0.03104  -0.05228
  42        2PY        -0.15964  -0.10178   0.14265  -0.00404  -0.17912
  43        2PZ         0.11979  -0.00571  -0.03358   0.06670   0.04709
  44        3S          0.68277   2.83997  -0.15963   1.77226  -1.58302
  45        3PX        -0.05785   0.63318  -0.66600   0.70087  -0.34586
  46        3PY        -0.01337   0.90014   0.72802  -0.07653   0.01914
  47        3PZ        -0.16873  -0.04362   0.15491   0.00534  -0.04364
  48        4S         -0.24690  -0.63052  -3.94705  -1.47310   0.05926
  49        4PX         0.41239   0.42665  -1.41412   0.06267   0.27716
  50        4PY        -0.08848  -0.23256   0.37398  -0.58071  -0.08288
  51        4PZ         0.02218  -0.00041  -0.07981  -0.08923  -0.16825
  52        5XX         0.38227  -0.66022   0.02202  -0.27561   0.27636
  53        5YY        -0.37636  -1.00324   0.16544  -0.30854   0.08672
  54        5ZZ        -0.26999  -0.32789  -0.01392  -0.08624   0.57097
  55        5XY        -0.11686  -0.08831  -0.36284  -0.06763  -0.17547
  56        5XZ         0.10725   0.09291  -0.18345   0.28054   0.22752
  57        5YZ         0.08809  -0.09364   0.08349   0.05026  -0.01704
  58 4   H  1S         -0.12989   0.20184   0.36139   0.05678   0.08325
  59        2S          0.09612   1.67085   1.68783  -1.44592   0.48289
  60 5   H  1S         -0.25253  -0.02390  -0.35514  -0.14640  -0.03595
  61        2S          0.49720   0.16403  -0.52691   0.50029   0.23457
  62 6   H  1S         -0.09419   0.29020   0.02026   0.00454  -0.09761
  63        2S         -0.14842  -0.33192   1.62190  -0.54651   0.02611
                          51        52        53        54        55
     Eigenvalues --     0.00000   0.00000   0.00000   0.00000   0.00000
   1 1   C  1S         -0.01948  -0.02820   0.00144   0.00031   0.01067
   2        2S          0.13423   0.20375  -0.04948  -0.00971   0.78413
   3        2PX        -0.12160   0.33201  -0.03738  -0.01370   0.36761
   4        2PY         0.06831  -0.18890  -0.00081  -0.00206  -0.11147
   5        2PZ        -0.27277  -0.11304  -0.38030   0.28798   0.26760
   6        3S         -0.16967  -0.43984   0.04726   0.01611  -0.03100
   7        3PX         0.22956   0.18623  -0.05999  -0.01821   0.33668
   8        3PY         0.91619   1.97227  -0.07568  -0.01430  -1.42851
   9        3PZ         0.33494  -0.01535   0.73152  -0.67519  -0.39380
  10        4S         -2.79365   0.22111   0.02486   0.00019  -0.57653
  11        4PX         0.24115  -1.06056  -0.00135  -0.00297   2.58971
  12        4PY         1.24396   0.38346  -0.03848  -0.00510  -0.40420
  13        4PZ        -0.05847  -0.03173  -1.05335  -0.69101  -0.01007
  14        5XX         0.07917  -0.23449  -0.02396  -0.00367  -0.16536
  15        5YY        -0.25081   0.04643  -0.00749  -0.00858   0.03903
  16        5ZZ        -0.26180  -0.16719   0.03479   0.00584  -0.05890
  17        5XY         0.04259   0.13534  -0.01392  -0.00640  -0.00817
  18        5XZ        -0.12832  -0.17841   0.07044   0.22821  -0.05816
  19        5YZ         0.30698  -0.31435  -0.16597   0.06785   0.13576
  20 2   O  1S         -0.00204   0.07506  -0.01007  -0.00205   0.04204
  21        2S          0.15170   0.39063   0.05978   0.01606   0.48326
  22        2PX        -0.05637   0.10900  -0.01880  -0.00900  -0.08653
  23        2PY         0.06218   0.17207  -0.00155  -0.00071   0.01369
  24        2PZ         0.11097   0.09221   0.01286   0.46468  -0.06559
  25        3S         -0.15007  -1.19771  -0.00148  -0.00452  -1.36715
  26        3PX        -0.11201  -0.18442  -0.01127  -0.00120   1.24434
  27        3PY        -0.16374  -0.34019   0.04184   0.01071   0.10112
  28        3PZ        -0.06598   0.01537   0.11317  -0.95007   0.20001
  29        4S         -0.43574   0.83808   0.03478   0.00714  -1.58874
  30        4PX         0.47368   0.49668  -0.04369  -0.01100  -1.10978
  31        4PY        -0.10331  -0.04532   0.01966   0.00700  -0.38537
  32        4PZ         0.09060   0.10293  -0.49901   1.36801  -0.13332
  33        5XX         0.03939   0.19428  -0.02764  -0.00529  -0.16167
  34        5YY         0.21834   0.05775   0.02767   0.01462   0.30383
  35        5ZZ         0.02488   0.40463  -0.01602  -0.00172   0.33114
  36        5XY         0.25156   0.17991   0.02573   0.01289   0.19097
  37        5XZ         0.08252   0.06975  -0.27207  -0.12858   0.00147
  38        5YZ        -0.18296   0.15008  -0.01599   0.01868   0.03687
  39 3   N  1S          0.06802  -0.08788  -0.00023  -0.00023   0.11061
  40        2S         -0.23371  -0.44833   0.01051   0.00324   0.31347
  41        2PX        -0.00923  -0.11286  -0.01495  -0.00203  -0.06633
  42        2PY        -0.19875   0.35415  -0.06121  -0.01741   0.05112
  43        2PZ         0.03567  -0.02132  -0.30147  -0.48973   0.07405
  44        3S         -0.27511   2.48204  -0.08208  -0.01946  -2.57362
  45        3PX         0.72101   1.29655  -0.02891  -0.00623  -0.02437
  46        3PY        -0.16943  -0.56135   0.02707   0.00139  -0.19957
  47        3PZ         0.09762   0.07195  -0.08401   1.07732  -0.10173
  48        4S          4.75727  -0.11181  -0.10260  -0.01431   2.13803
  49        4PX         1.18767   1.22190  -0.06857  -0.01704  -1.14236
  50        4PY        -0.05642  -1.03136  -0.01934  -0.00664   1.51719
  51        4PZ        -0.25891  -0.07380   0.98174  -0.43136   0.23834
  52        5XX         0.03839  -0.18266   0.01170   0.00079   0.22777
  53        5YY         0.12771  -0.18551  -0.04163  -0.01061   0.21097
  54        5ZZ         0.25777  -0.61098   0.04628   0.00924   0.31844
  55        5XY         0.19323   0.15043   0.05051   0.01696   0.13957
  56        5XZ        -0.03056  -0.09869   0.18088   0.19273   0.28641
  57        5YZ        -0.17053  -0.34063  -0.19226   0.13598   0.09660
  58 4   H  1S         -0.23114   0.00413   0.00119  -0.00116  -0.05136
  59        2S         -0.64093  -1.29505   0.05863   0.01357   1.30107
  60 5   H  1S         -0.11004  -0.09574  -0.04993  -0.01108   0.19680
  61        2S          0.64834   1.41515   0.02545   0.00473   0.02728
  62 6   H  1S          0.04756  -0.03491  -0.02682  -0.00727  -0.10590
  63        2S         -1.16473  -1.45577   0.02633   0.00125   0.71220
                          56        57        58        59        60
     Eigenvalues --     0.00000   0.00000   0.00000   0.00000   0.00000
   1 1   C  1S          0.04432  -0.01316   0.07229  -0.02462  -0.00278
   2        2S         -0.43075  -0.54528   0.05363   0.27789   0.07084
   3        2PX        -0.25929  -0.04910  -0.10284   0.07063   0.01941
   4        2PY        -0.20341  -0.21227  -0.01076  -0.02917  -0.02670
   5        2PZ        -0.04991   0.16750  -0.07950   0.06051   0.25655
   6        3S         -0.54545   0.71255  -2.90845  -0.87730   0.07525
   7        3PX        -0.24266   0.13139   0.42723   0.72964   0.03404
   8        3PY        -0.56052   0.76463   1.86070   2.47437   0.16317
   9        3PZ         0.28214   0.02701  -0.27688   0.41786   0.39112
  10        4S         -1.06657   0.32749   0.17403   1.07290   0.09499
  11        4PX         0.07696  -0.58763   0.04379  -0.30331  -0.11352
  12        4PY         0.46409   0.16520  -0.46406  -0.26150   0.04449
  13        4PZ         0.12276  -0.14728  -0.01068   0.13099  -1.28322
  14        5XX        -0.10938   0.11117  -0.01053  -0.23605   0.03220
  15        5YY         0.30698  -0.06889  -0.00890  -0.29101  -0.05377
  16        5ZZ         0.10718   0.25134   0.39624  -0.05011  -0.08319
  17        5XY         0.39858  -0.09093  -0.14478  -0.12525  -0.01883
  18        5XZ         0.35146  -0.14605   0.12009   0.07849   0.19420
  19        5YZ        -0.02553   0.06637   0.05130  -0.11835   0.07264
  20 2   O  1S         -0.09302   0.00870  -0.06363   0.01847   0.02392
  21        2S         -0.47241  -0.05929  -0.41494  -0.16247  -0.03739
  22        2PX         0.10051  -0.04699  -0.00865   0.05197  -0.02826
  23        2PY        -0.05392   0.16450   0.13601   0.07621   0.02098
  24        2PZ         0.00886  -0.24480   0.25572  -0.22493   0.30357
  25        3S          1.67928  -0.01949   1.81376   0.53377  -0.15625
  26        3PX        -0.73238  -0.03495  -0.73153  -0.28040   0.04687
  27        3PY         0.22560  -0.14820  -0.30522  -0.54920  -0.06649
  28        3PZ        -0.27887   0.22064   0.04820  -0.26260  -0.57983
  29        4S          0.41199   0.06124  -0.13825  -1.18662  -0.00949
  30        4PX         0.12464   0.44310  -0.00118   0.28523   0.06953
  31        4PY         0.10249  -0.18938   0.20990   0.30347   0.00440
  32        4PZ         0.02369  -0.12002  -0.13473   0.18123   0.44157
  33        5XX        -0.36075   0.18353  -0.02597   0.04503   0.06749
  34        5YY        -0.22897  -0.27689  -0.42145   0.08535   0.04968
  35        5ZZ        -0.48037   0.08529  -0.17308   0.14023   0.08010
  36        5XY         0.16612   0.13147  -0.06444   0.09938   0.04104
  37        5XZ         0.16911   0.04537   0.30688  -0.35622   0.07595
  38        5YZ        -0.08178   0.02765  -0.00463  -0.08538   0.15747
  39 3   N  1S          0.03177  -0.00866   0.09172   0.06063  -0.00925
  40        2S          0.11058  -0.37160   0.08988  -0.11136  -0.01872
  41        2PX         0.14015  -0.15799   0.08341  -0.14603   0.03273
  42        2PY         0.00415  -0.04148  -0.22117   0.09604   0.09016
  43        2PZ         0.01483  -0.05782   0.07024  -0.05387   0.68433
  44        3S         -0.77464   0.98978  -0.30963   0.37601   0.22499
  45        3PX        -1.09245   0.07978   0.94905   1.92579   0.07023
  46        3PY         0.29405   0.21472   1.25404   0.26306  -0.13073
  47        3PZ        -0.05954  -0.07859   0.14133  -0.20495  -0.98943
  48        4S          1.63618  -0.37091  -0.34482  -0.69006  -0.03257
  49        4PX        -0.11208   0.23238   0.25267   0.81926   0.09295
  50        4PY         0.31775  -0.12914   1.14476   0.09962  -0.07147
  51        4PZ        -0.10312   0.03159   0.19971  -0.25846   0.77733
  52        5XX         0.12058  -0.13510   0.51132   0.31658  -0.05702
  53        5YY        -0.16945  -0.02547   0.28262   0.30858   0.03871
  54        5ZZ         0.00833  -0.22340   0.28441   0.23851  -0.12568
  55        5XY         0.13861   0.35402   0.23379   0.07585  -0.01590
  56        5XZ         0.06252   0.26654   0.10437  -0.19748  -0.23713
  57        5YZ         0.11579   0.39822  -0.08087   0.09838  -0.06355
  58 4   H  1S          0.16578   0.08663   0.15162  -0.02339  -0.00593
  59        2S          0.42425  -0.87903  -1.04290  -1.72729  -0.10574
  60 5   H  1S          0.11239  -0.09345  -0.05953  -0.09499   0.07860
  61        2S         -1.29228  -0.15559   0.62418   1.88163   0.00206
  62 6   H  1S          0.18142   0.05344  -0.27712  -0.37610   0.02319
  63        2S          0.55022   0.21293   2.34058   0.78954  -0.12759
                          61        62        63
     Eigenvalues --     0.00000   0.00000   0.00000
   1 1   C  1S         -0.04576  -0.01845  -0.00486
   2        2S          0.11267   0.13603   0.05862
   3        2PX        -0.10191  -0.01631   0.02484
   4        2PY         0.00629  -0.01424   0.01241
   5        2PZ        -0.27413  -0.12038   0.11418
   6        3S         -0.18972   0.04788   0.03976
   7        3PX        -0.10672   0.04638   0.08461
   8        3PY        -0.10384   0.25925   0.19066
   9        3PZ         0.17179  -0.21440   0.37008
  10        4S         -0.18112   0.08263   0.09075
  11        4PX         0.20636  -0.12284  -0.10011
  12        4PY        -0.20092  -0.02222  -0.01131
  13        4PZ        -0.36351   1.57408  -0.10036
  14        5XX        -0.14958  -0.00068   0.01098
  15        5YY         0.09915  -0.02384   0.01785
  16        5ZZ         0.31410  -0.00071  -0.02574
  17        5XY        -0.00737  -0.03601  -0.01388
  18        5XZ        -0.27327   0.12747  -0.30425
  19        5YZ         0.14331   0.47973   0.31496
  20 2   O  1S         -0.01134   0.04123   0.03216
  21        2S         -0.07179  -0.12031  -0.10496
  22        2PX         0.17867   0.00847   0.00113
  23        2PY        -0.00961   0.02318   0.02070
  24        2PZ         0.16306   0.05213   0.49826
  25        3S          0.25437  -0.16850  -0.13332
  26        3PX        -0.12888   0.02486   0.02702
  27        3PY         0.14321  -0.06070  -0.07190
  28        3PZ        -0.07876   0.55371  -0.90442
  29        4S          0.20859   0.07609   0.02968
  30        4PX        -0.05339   0.11890   0.10988
  31        4PY         0.00597   0.03036   0.01304
  32        4PZ         0.22742  -1.22515   0.20638
  33        5XX        -0.07359   0.08952   0.07189
  34        5YY        -0.03668   0.07602   0.01621
  35        5ZZ        -0.22913   0.06183   0.07172
  36        5XY         0.08671   0.05874  -0.02197
  37        5XZ        -0.17993  -0.39164  -0.02031
  38        5YZ         0.12436  -0.00571  -0.06634
  39 3   N  1S         -0.01091  -0.02109  -0.01346
  40        2S          0.09078   0.02208   0.01173
  41        2PX        -0.20745  -0.01538   0.01541
  42        2PY        -0.32990   0.08458   0.15277
  43        2PZ         0.03064  -0.02612  -0.11937
  44        3S         -0.07756   0.35919   0.27129
  45        3PX        -0.02129   0.12234   0.08959
  46        3PY         0.15434  -0.17805  -0.13133
  47        3PZ        -0.05118   0.78008  -0.46881
  48        4S          0.12271   0.02654   0.00441
  49        4PX        -0.03164   0.14838   0.12294
  50        4PY        -0.04924  -0.16830  -0.11164
  51        4PZ         0.18825  -1.45420   0.61521
  52        5XX         0.11273  -0.06878  -0.06489
  53        5YY        -0.31887  -0.02818   0.04358
  54        5ZZ         0.05170  -0.23055  -0.18413
  55        5XY         0.07550  -0.00571  -0.05515
  56        5XZ        -0.40341   0.24244   0.13069
  57        5YZ         0.18325  -0.00895  -0.14161
  58 4   H  1S         -0.01139  -0.02516  -0.01337
  59        2S         -0.03664  -0.22492  -0.17097
  60 5   H  1S         -0.05665   0.12907   0.11303
  61        2S          0.01595  -0.00161  -0.02023
  62 6   H  1S         -0.22603  -0.03396   0.02105
  63        2S          0.06491  -0.19604  -0.13223
          Condensed to atoms (all electrons):
               1          2          3          4          5          6
     1  C    4.709205   0.445035   0.160087   0.437197   0.012860  -0.005459
     2  O    0.445035   8.304672  -0.166105  -0.039636   0.009471   0.006815
     3  N    0.160087  -0.166105   7.339856  -0.159550   0.251369   0.290297
     4  H    0.437197  -0.039636  -0.159550   0.551201   0.007016   0.004199
     5  H    0.012860   0.009471   0.251369   0.007016   0.327990  -0.009303
     6  H   -0.005459   0.006815   0.290297   0.004199  -0.009303   0.278493
 Mulliken charges:
               1
     1  C    0.241076
     2  O   -0.560252
     3  N   -0.715953
     4  H    0.199574
     5  H    0.400598
     6  H    0.434957
 Sum of Mulliken charges =   0.00000
 Mulliken charges with hydrogens summed into heavy atoms:
               1
     1  C    0.440650
     2  O   -0.560252
     3  N    0.119602
 Electronic spatial extent (au):  <R**2>=            144.3883
 Charge=              0.0000 electrons
 Dipole moment (field-independent basis, Debye):
    X=             -4.9473    Y=              0.1353    Z=              0.0000  Tot=              4.9492
 Quadrupole moment (field-independent basis, Debye-Ang):
   XX=            -18.9335   YY=            -14.3534   ZZ=            -19.0957
   XY=              0.4531   XZ=              0.0000   YZ=              0.0000
 Traceless Quadrupole moment (field-independent basis, Debye-Ang):
   XX=             -1.4726   YY=              3.1075   ZZ=             -1.6348
   XY=              0.4531   XZ=              0.0000   YZ=              0.0000
 Octapole moment (field-independent basis, Debye-Ang**2):
  XXX=            -15.6587  YYY=             -2.9346  ZZZ=              0.0000  XYY=             -3.0018
  XXY=             -1.0827  XXZ=              0.0000  XZZ=              0.6288  YZZ=              0.3128
  YYZ=              0.0000  XYZ=              0.0000
 Hexadecapole moment (field-independent basis, Debye-Ang**3):
 XXXX=           -105.0876 YYYY=            -31.7338 ZZZZ=            -18.9090 XXXY=             -9.7447
 XXXZ=              0.0000 YYYX=             -4.9963 YYYZ=              0.0000 ZZZX=              0.0000
 ZZZY=              0.0000 XXYY=            -26.1466 XXZZ=            -24.5174 YYZZ=            -10.3811
 XXYZ=              0.0000 YYXZ=              0.0000 ZZXY=             -3.4209
 N-N= 7.131027205130D+01 E-N=-5.402476339355D+02  KE= 1.683848453925D+02
 Symmetry A'   KE= 1.614325655080D+02
 Symmetry A"   KE= 6.952279884459D+00
 Calling FoFJK, ICntrl=      2127 FMM=F ISym2X=1 I1Cent= 0 IOpClX= 0 NMat=1 NMatS=1 NMatT=0.
 ***** Axes restored to original set *****
 -------------------------------------------------------------------
 Center     Atomic                   Forces (Hartrees/Bohr)
 Number     Number              X              Y              Z
 -------------------------------------------------------------------
      1        6           0.041244164    0.000000000    0.169605501
      2        8          -0.007748866    0.000000000   -0.084191555
      3        7           0.023119479    0.000000000   -0.035813112
      4        1          -0.069620274    0.000000000   -0.045823068
      5        1           0.005312870    0.000000000   -0.009147682
      6        1           0.007692627    0.000000000    0.005369915
 -------------------------------------------------------------------
 Cartesian Forces:  Max     0.169605501 RMS     0.050869722

 GradGradGradGradGradGradGradGradGradGradGradGradGradGradGradGradGradGrad
 Berny optimization.
 FormGI is forming the generalized inverse of G from B-inverse, IUseBI=4.
 Internal  Forces:  Max     0.084193080 RMS     0.033947602
 Search for a local minimum.
 Step number   1 out of a maximum of   25
 All quantities printed in internal units (Hartrees-Bohrs-Radians)
 Mixed Optimization -- RFO/linear search
 Second derivative matrix not updated -- first step.
 The second derivative matrix:
                          R1        R2        R3        R4        R5
           R1           0.67193
           R2           0.00000   0.67193
           R3           0.00000   0.00000   0.47688
           R4           0.00000   0.00000   0.00000   0.47688
           R5           0.00000   0.00000   0.00000   0.00000   0.47688
           A1           0.00000   0.00000   0.00000   0.00000   0.00000
           A2           0.00000   0.00000   0.00000   0.00000   0.00000
           A3           0.00000   0.00000   0.00000   0.00000   0.00000
           A4           0.00000   0.00000   0.00000   0.00000   0.00000
           A5           0.00000   0.00000   0.00000   0.00000   0.00000
           A6           0.00000   0.00000   0.00000   0.00000   0.00000
           D1           0.00000   0.00000   0.00000   0.00000   0.00000
           D2           0.00000   0.00000   0.00000   0.00000   0.00000
           D3           0.00000   0.00000   0.00000   0.00000   0.00000
           D4           0.00000   0.00000   0.00000   0.00000   0.00000
                          A1        A2        A3        A4        A5
           A1           0.25000
           A2           0.00000   0.16000
           A3           0.00000   0.00000   0.16000
           A4           0.00000   0.00000   0.00000   0.16000
           A5           0.00000   0.00000   0.00000   0.00000   0.16000
           A6           0.00000   0.00000   0.00000   0.00000   0.00000
           D1           0.00000   0.00000   0.00000   0.00000   0.00000
           D2           0.00000   0.00000   0.00000   0.00000   0.00000
           D3           0.00000   0.00000   0.00000   0.00000   0.00000
           D4           0.00000   0.00000   0.00000   0.00000   0.00000
                          A6        D1        D2        D3        D4
           A6           0.16000
           D1           0.00000   0.03015
           D2           0.00000   0.00000   0.03015
           D3           0.00000   0.00000   0.00000   0.03015
           D4           0.00000   0.00000   0.00000   0.00000   0.03015
 ITU=  0
     Eigenvalues ---    0.03015   0.03015   0.03015   0.16000   0.16000
     Eigenvalues ---    0.16000   0.22000   0.47688   0.47688   0.47688
     Eigenvalues ---    0.67193   0.67193
 RFO step:  Lambda=-2.99465785D-02 EMin= 3.01458860D-02
 Linear search not attempted -- first point.
 Iteration  1 RMS(Cart)=  0.04713885 RMS(Int)=  0.00116171
 Iteration  2 RMS(Cart)=  0.00142825 RMS(Int)=  0.00000108
 Iteration  3 RMS(Cart)=  0.00000102 RMS(Int)=  0.00000000
 Iteration  4 RMS(Cart)=  0.00000000 RMS(Int)=  0.00000000
 ClnCor:  largest displacement from symmetrization is 1.75D-12 for atom     1.
 Variable       Old X    -DE/DX   Delta X   Delta X   Delta X     New X
                                 (Linear)    (Quad)   (Total)
    R1        2.45664  -0.08419   0.00000  -0.11995  -0.11995   2.33669
    R2        2.45664   0.05108   0.00000   0.07278   0.07278   2.52942
    R3        1.88973   0.08321   0.00000   0.16417   0.16417   2.05390
    R4        1.88973   0.00915   0.00000   0.01805   0.01805   1.90777
    R5        1.88973   0.00935   0.00000   0.01845   0.01845   1.90817
    A1        2.09440   0.01577   0.00000   0.06309   0.06309   2.15749
    A2        2.09440  -0.00328   0.00000  -0.00728  -0.00728   2.08711
    A3        2.09440  -0.01249   0.00000  -0.05581  -0.05581   2.03859
    A4        2.09440   0.00721   0.00000   0.03794   0.03794   2.13234
    A5        2.09440  -0.00437   0.00000  -0.02299  -0.02299   2.07141
    A6        2.09440  -0.00284   0.00000  -0.01495  -0.01495   2.07944
    D1        3.14159   0.00000   0.00000   0.00000   0.00000   3.14159
    D2        0.00000   0.00000   0.00000   0.00000   0.00000   0.00000
    D3        0.00000   0.00000   0.00000   0.00000   0.00000   0.00000
    D4        3.14159   0.00000   0.00000   0.00000   0.00000   3.14159
[...]
               1
     1  C    1.089923
     2  O   -0.810698
     3  N   -0.279225
 Electronic spatial extent (au):  <R**2>=            146.8088
 Charge=              0.0000 electrons
 Dipole moment (field-independent basis, Debye):
    X=             -4.1460    Y=             -0.6156    Z=              0.0000  Tot=              4.1914
 Quadrupole moment (field-independent basis, Debye-Ang):
   XX=            -18.5782   YY=            -14.6940   ZZ=            -19.1980
   XY=             -0.1122   XZ=              0.0000   YZ=              0.0000
 Traceless Quadrupole moment (field-independent basis, Debye-Ang):
   XX=             -1.0881   YY=              2.7961   ZZ=             -1.7080
   XY=             -0.1122   XZ=              0.0000   YZ=              0.0000
 Octapole moment (field-independent basis, Debye-Ang**2):
  XXX=            -13.3185  YYY=             -4.7802  ZZZ=              0.0000  XYY=             -2.3744
  XXY=             -2.3194  XXZ=              0.0000  XZZ=              1.4329  YZZ=              0.5233
  YYZ=              0.0000  XYZ=              0.0000
 Hexadecapole moment (field-independent basis, Debye-Ang**3):
 XXXX=            -97.1613 YYYY=            -39.9806 ZZZZ=            -19.1313 XXXY=            -13.8603
 XXXZ=              0.0000 YYYX=            -12.5588 YYYZ=              0.0000 ZZZX=              0.0000
 ZZZY=              0.0000 XXYY=            -27.2875 XXZZ=            -23.3626 YYZZ=            -12.3916
 XXYZ=              0.0000 YYXZ=              0.0000 ZZXY=             -5.7809
 N-N= 7.115512275500D+01 E-N=-5.398336997530D+02  KE= 1.682939278158D+02
 Symmetry A'   KE= 1.613401306126D+02
 Symmetry A"   KE= 6.953797203204D+00
  Exact polarizability:  31.998   2.097  24.063   0.000   0.000  16.051
 Approx polarizability:  34.595   1.565  22.931   0.000   0.000  15.847
 Calling FoFJK, ICntrl=    100127 FMM=F ISym2X=1 I1Cent= 0 IOpClX= 0 NMat=1 NMatS=1 NMatT=0.
 Full mass-weighted force constant matrix:
 Low frequencies ---  -66.8242  -15.4651   -0.0012   -0.0007    0.0007   32.7065
 Low frequencies ---  250.1843  575.8642  644.1767
 Diagonal vibrational polarizability:
        5.2034434       2.8544299     120.4323473
 Harmonic frequencies (cm**-1), IR intensities (KM/Mole), Raman scattering
 activities (A**4/AMU), depolarization ratios for plane and unpolarized
 incident light, reduced masses (AMU), force constants (mDyne/A),
 and normal coordinates:
                      1                      2                      3
                     A"                     A'                     A"
 Frequencies --    250.0026               575.8642               644.1465
 Red. masses --      1.2270                 2.5153                 1.1998
 Frc consts  --      0.0452                 0.4915                 0.2933
 IR Inten    --    276.8116                11.3869                18.3995
  Atom  AN      X      Y      Z        X      Y      Z        X      Y      Z
     1   6     0.00   0.00  -0.02     0.07  -0.19   0.00     0.00   0.00  -0.10
     2   8     0.00   0.00  -0.01     0.13   0.17   0.00     0.00   0.00   0.06
     3   7     0.00   0.00   0.13    -0.15  -0.04   0.00     0.00   0.00   0.05
     4   1     0.00   0.00   0.01    -0.05  -0.23   0.00     0.00   0.00  -0.22
     5   1     0.00   0.00  -0.83    -0.04   0.50   0.00     0.00   0.00   0.59
     6   1     0.00   0.00  -0.54    -0.73  -0.21   0.00     0.00   0.00  -0.76
                      4                      5                      6
                     A"                     A'                     A'
 Frequencies --   1037.6936              1078.9664              1300.0920
 Red. masses --      1.5495                 1.7180                 2.7610
 Frc consts  --      0.9830                 1.1784                 2.7495
 IR Inten    --      2.0871                 4.5335               119.3954
  Atom  AN      X      Y      Z        X      Y      Z        X      Y      Z
     1   6     0.00   0.00   0.21     0.04   0.02   0.00     0.07   0.31   0.00
     2   8     0.00   0.00  -0.05     0.11   0.03   0.00     0.01  -0.04   0.00
     3   7     0.00   0.00  -0.04    -0.19  -0.02   0.00    -0.04  -0.22   0.00
     4   1     0.00   0.00  -0.96     0.29   0.11   0.00     0.24   0.38   0.00
     5   1     0.00   0.00  -0.02    -0.35  -0.72   0.00     0.00   0.04   0.00
     6   1     0.00   0.00  -0.16     0.42   0.16   0.00    -0.69  -0.42   0.00
                      7                      8                      9
                     A'                     A'                     A'
 Frequencies --   1438.4597              1653.6834              1842.8495
 Red. masses --      1.2090                 1.2442                 7.4704
 Frc consts  --      1.4739                 2.0047                14.9476
 IR Inten    --      5.0913                71.7381               489.2721
  Atom  AN      X      Y      Z        X      Y      Z        X      Y      Z
     1   6    -0.01  -0.08   0.00     0.03  -0.04   0.00     0.62  -0.02   0.00
     2   8    -0.08   0.05   0.00    -0.04   0.01   0.00    -0.37   0.06   0.00
     3   7     0.02  -0.02   0.00     0.07   0.09   0.00    -0.11  -0.03   0.00
     4   1     0.93   0.30   0.00     0.08  -0.04   0.00    -0.33  -0.41   0.00
     5   1     0.07   0.15   0.00    -0.10  -0.73   0.00    -0.10   0.04   0.00
     6   1     0.07   0.00   0.00    -0.65  -0.12   0.00     0.41   0.11   0.00
                     10                     11                     12
                     A'                     A'                     A'
 Frequencies --   3013.9568              3632.3662              3769.3247
 Red. masses --      1.0876                 1.0465                 1.1054
 Frc consts  --      5.8211                 8.1355                 9.2532
 IR Inten    --     98.0234                44.6679                51.3763
  Atom  AN      X      Y      Z        X      Y      Z        X      Y      Z
     1   6     0.03  -0.08   0.00     0.00   0.00   0.00     0.00   0.00   0.00
     2   8     0.00   0.00   0.00     0.00   0.00   0.00     0.00   0.00   0.00
     3   7     0.00   0.00   0.00    -0.03  -0.05   0.00     0.07  -0.05   0.00
     4   1    -0.37   0.92   0.00     0.00   0.00   0.00     0.00   0.01   0.00
     5   1     0.00  -0.02   0.00     0.62  -0.14   0.00    -0.76   0.16   0.00
     6   1     0.00  -0.01   0.00    -0.22   0.74   0.00    -0.17   0.60   0.00

 -------------------
 - Thermochemistry -
 -------------------
 Temperature   298.150 Kelvin.  Pressure   1.00000 Atm.
 Atom     1 has atomic number  6 and mass  12.00000
 Atom     2 has atomic number  8 and mass  15.99491
 Atom     3 has atomic number  7 and mass  14.00307
 Atom     4 has atomic number  1 and mass   1.00783
 Atom     5 has atomic number  1 and mass   1.00783
 Atom     6 has atomic number  1 and mass   1.00783
 Molecular mass:    45.02146 amu.
 Principal axes and moments of inertia in atomic units:
                           1         2         3
     Eigenvalues --    24.66802 158.90742 183.57544
           X            0.93169  -0.36325   0.00000
           Y            0.36325   0.93169   0.00000
           Z            0.00000   0.00000   1.00000
 This molecule is an asymmetric top.
 Rotational symmetry number  1.
 Rotational temperatures (Kelvin)      3.51118     0.54506     0.47182
 Rotational constants (GHZ):          73.16116    11.35719     9.83106
 Zero-point vibrational energy     121046.6 (Joules/Mol)
                                   28.93082 (Kcal/Mol)
 Warning -- explicit consideration of   2 degrees of freedom as
           vibrations may cause significant error
 Vibrational temperatures:    359.70   828.54   926.78  1493.01  1552.39
          (Kelvin)           1870.54  2069.62  2379.28  2651.45  4336.41
                             5226.16  5423.21
 
 Zero-point correction=                           0.046104 (Hartree/Particle)
 Thermal correction to Energy=                    0.049814
 Thermal correction to Enthalpy=                  0.050759
 Thermal correction to Gibbs Free Energy=         0.021611
 Sum of electronic and zero-point Energies=           -169.798333
 Sum of electronic and thermal Energies=              -169.794622
 Sum of electronic and thermal Enthalpies=            -169.793678
 Sum of electronic and thermal Free Energies=         -169.822825
 
                     E (Thermal)             CV                S
                      KCal/Mol        Cal/Mol-Kelvin    Cal/Mol-Kelvin
 Total                   31.259             10.690             61.345
 Electronic               0.000              0.000              0.000
 Translational            0.889              2.981             37.339
 Rotational               0.889              2.981             21.203
 Vibrational             29.482              4.728              2.803
 Vibration     1          0.663              1.763              1.731
 Vibration     2          0.932              1.083              0.493
                       Q            Log10(Q)             Ln(Q)
 Total Bot       0.114669D-09         -9.940552        -22.888967
 Total V=0       0.184444D+12         11.265863         25.940609
 Vib (Bot)       0.100570D-20        -20.997530        -48.348599
 Vib (Bot)    1  0.780678D+00         -0.107528         -0.247593
 Vib (Bot)    2  0.265710D+00         -0.575592         -1.325350
 Vib (V=0)       0.161765D+01          0.208886          0.480977
 Vib (V=0)    1  0.142707D+01          0.154445          0.355623
 Vib (V=0)    2  0.106622D+01          0.027846          0.064117
 Electronic      0.100000D+01          0.000000          0.000000
 Translational   0.118737D+08          7.074585         16.289833
 Rotational      0.960269D+04          3.982393          9.169799
 ***** Axes restored to original set *****
 -------------------------------------------------------------------
 Center     Atomic                   Forces (Hartrees/Bohr)
 Number     Number              X              Y              Z
 -------------------------------------------------------------------
      1        6          -0.000258519    0.000000000    0.000059612
      2        8          -0.000108626    0.000000000   -0.000079951
      3        7           0.000218148    0.000000000   -0.000053093
      4        1           0.000296094    0.000000000    0.000137616
      5        1          -0.000057228    0.000000000   -0.000035194
      6        1          -0.000089870    0.000000000   -0.000028991
 -------------------------------------------------------------------
 Cartesian Forces:  Max     0.000296094 RMS     0.000119960
 FormGI is forming the generalized inverse of G from B-inverse, IUseBI=4.

 GradGradGradGradGradGradGradGradGradGradGradGradGradGradGradGradGradGrad
 Berny optimization.
 Internal  Forces:  Max     0.000326359 RMS     0.000116173
 Search for a local minimum.
 Step number   1 out of a maximum of    2
 All quantities printed in internal units (Hartrees-Bohrs-Radians)
 Second derivative matrix not updated -- analytic derivatives used.
 The second derivative matrix:
                          R1        R2        R3        R4        R5
           R1           0.86209
           R2           0.08577   0.47943
           R3           0.03172   0.01547   0.32215
           R4          -0.00077   0.00261   0.00056   0.49149
           R5          -0.00134   0.00690  -0.00035  -0.00278   0.48493
           A1           0.03144   0.02049  -0.01497   0.00649  -0.00672
           A2           0.01143  -0.03182   0.00088  -0.00299   0.00063
           A3          -0.04287   0.01133   0.01409  -0.00350   0.00609
           A4           0.00311   0.00943   0.00059   0.00305  -0.00994
           A5           0.00035   0.00350   0.00190  -0.00835   0.00790
           A6          -0.00346  -0.01292  -0.00248   0.00530   0.00204
           D1           0.00000   0.00000   0.00000   0.00000   0.00000
           D2           0.00000   0.00000   0.00000   0.00000   0.00000
           D3           0.00000   0.00000   0.00000   0.00000   0.00000
           D4           0.00000   0.00000   0.00000   0.00000   0.00000
                          A1        A2        A3        A4        A5
           A1           0.17031
           A2          -0.08530   0.12124
           A3          -0.08501  -0.03594   0.12096
           A4           0.02060  -0.00671  -0.01390   0.08107
           A5          -0.02213   0.00432   0.01782  -0.04242   0.07884
           A6           0.00153   0.00239  -0.00392  -0.03865  -0.03642
           D1           0.00000   0.00000   0.00000   0.00000   0.00000
           D2           0.00000   0.00000   0.00000   0.00000   0.00000
           D3           0.00000   0.00000   0.00000   0.00000   0.00000
           D4           0.00000   0.00000   0.00000   0.00000   0.00000
                          A6        D1        D2        D3        D4
           A6           0.07507
           D1           0.00000   0.03114
           D2           0.00000   0.02766   0.02735
           D3           0.00000  -0.01796  -0.01550   0.02041
           D4           0.00000  -0.02145  -0.01581   0.02287   0.02850
 ITU=  0
     Eigenvalues ---    0.00232   0.01688   0.08819   0.10699   0.11409
     Eigenvalues ---    0.15334   0.25331   0.32706   0.46544   0.48710
     Eigenvalues ---    0.49356   0.88668
 Angle between quadratic step and forces=  28.52 degrees.
 Linear search not attempted -- first point.
 Iteration  1 RMS(Cart)=  0.00077952 RMS(Int)=  0.00000033
 Iteration  2 RMS(Cart)=  0.00000033 RMS(Int)=  0.00000000
 ClnCor:  largest displacement from symmetrization is 7.68D-12 for atom     3.
 Variable       Old X    -DE/DX   Delta X   Delta X   Delta X     New X
                                 (Linear)    (Quad)   (Total)
    R1        2.29561  -0.00007   0.00000  -0.00014  -0.00014   2.29546
    R2        2.56634   0.00012   0.00000   0.00032   0.00032   2.56667
    R3        2.08869  -0.00033   0.00000  -0.00095  -0.00095   2.08775
    R4        1.90431   0.00004   0.00000   0.00008   0.00008   1.90438
    R5        1.90960  -0.00010   0.00000  -0.00021  -0.00021   1.90939
    A1        2.17518   0.00018   0.00000   0.00076   0.00076   2.17595
    A2        2.13843  -0.00005   0.00000  -0.00003  -0.00003   2.13840
    A3        1.96958  -0.00014   0.00000  -0.00074  -0.00074   1.96884
    A4        2.12401  -0.00008   0.00000  -0.00090  -0.00090   2.12311
    A5        2.08349   0.00003   0.00000   0.00053   0.00053   2.08401
    A6        2.07568   0.00005   0.00000   0.00037   0.00037   2.07606
    D1        3.14159   0.00000   0.00000   0.00000   0.00000   3.14159
    D2        0.00000   0.00000   0.00000   0.00000   0.00000   0.00000
    D3        0.00000   0.00000   0.00000   0.00000   0.00000   0.00000
    D4        3.14159   0.00000   0.00000   0.00000   0.00000   3.14159
         Item               Value     Threshold  Converged?
 Maximum Force            0.000326     0.000450     YES
 RMS     Force            0.000116     0.000300     YES
 Maximum Displacement     0.001756     0.001800     YES
 RMS     Displacement     0.000779     0.001200     YES
 Predicted change in Energy=-3.658853D-07
 Optimization completed.
    -- Stationary point found.
                           ----------------------------
                           !   Optimized Parameters   !
                           ! (Angstroms and Degrees)  !
 --------------------------                            --------------------------
 ! Name  Definition              Value          Derivative Info.                !
 --------------------------------------------------------------------------------
 ! R1    R(1,2)                  1.2148         -DE/DX =   -0.0001              !
 ! R2    R(1,3)                  1.3581         -DE/DX =    0.0001              !
 ! R3    R(1,4)                  1.1053         -DE/DX =   -0.0003              !
 ! R4    R(3,5)                  1.0077         -DE/DX =    0.0                 !
 ! R5    R(3,6)                  1.0105         -DE/DX =   -0.0001              !
 ! A1    A(2,1,3)              124.6287         -DE/DX =    0.0002              !
 ! A2    A(2,1,4)              122.5229         -DE/DX =    0.0                 !
 ! A3    A(3,1,4)              112.8484         -DE/DX =   -0.0001              !
 ! A4    A(1,3,5)              121.697          -DE/DX =   -0.0001              !
 ! A5    A(1,3,6)              119.375          -DE/DX =    0.0                 !
 ! A6    A(5,3,6)              118.928          -DE/DX =    0.0                 !
 ! D1    D(2,1,3,5)            180.0            -DE/DX =    0.0                 !
 ! D2    D(2,1,3,6)              0.0            -DE/DX =    0.0                 !
 ! D3    D(4,1,3,5)              0.0            -DE/DX =    0.0                 !
 ! D4    D(4,1,3,6)            180.0            -DE/DX =    0.0                 !
 --------------------------------------------------------------------------------
 GradGradGradGradGradGradGradGradGradGradGradGradGradGradGradGradGradGrad

 1\1\GINC-DEATHSTAR\Freq\RwB97XD\6-31+G(d)\C1H3N1O1\MMCCULL\06-May-2019
 \0\\#N Geom=AllCheck Guess=TCheck SCRF=Check GenChk RwB97XD/6-31+G(d) 
 Freq\\Formamide geometry optimization\\0,1\C,0.0053092853,0.,0.0842332
 82\O,-0.0323557434,0.,1.2984318597\N,1.1461737681,0.,-0.6524686729\H,-
 0.9077720662,0.,-0.538621207\H,1.1258627752,0.,-1.6599788536\H,2.04028
 10558,0.,-0.1815964082\\Version=EM64M-G09RevD.01\State=1-A'\HF=-169.84
 44367\RMSD=1.027e-09\RMSF=1.200e-04\ZeroPoint=0.0461042\Thermal=0.0498
 144\Dipole=0.5480974,0.,-1.5552883\DipoleDeriv=1.291976,0.,-0.5252389,
 0.,0.2678917,0.,-0.527492,0.,1.8248391,-0.5979264,0.,0.0039752,0.,-0.4
 191153,0.,0.3287223,0.,-1.4150533,-0.9328701,0.,0.6668922,0.,-0.682030
 2,0.,0.3410601,0.,-0.6502899,-0.1188825,0.,-0.1355329,0.,0.1008355,0.,
 -0.1458652,0.,-0.0968901,0.1643109,0.,-0.0177584,0.,0.3783935,0.,-0.00
 36876,0.,0.1833137,0.1933921,0.,0.0076628,0.,0.3540247,0.,0.0072624,0.
 ,0.1540805\Polar=25.1329366,0.,16.0509464,-3.4269791,0.,30.9272941\PG=
 CS [SG(C1H3N1O1)]\NImag=0\\0.68749161,0.,0.18665067,0.00807275,0.,1.05
 011052,-0.11426668,0.,-0.00306541,0.08908353,0.,-0.07275596,0.,0.,0.03
 176228,-0.01226429,0.,-0.75072733,-0.03272804,0.,0.86080303,-0.3372726
 4,0.,0.07656718,0.01287421,0.,0.05292230,0.81728081,0.,-0.04379758,0.,
 0.,0.01869489,0.,0.,0.01744317,0.09699470,0.,-0.19249508,0.06493251,0.
 ,-0.06811443,0.02760628,0.,0.88957992,-0.22585552,0.,-0.09231501,0.013
 15364,0.,-0.01115040,-0.03147132,0.,-0.01455730,0.24862767,0.,-0.06098
 347,0.,0.,0.01967222,0.,0.,0.01129031,0.,0.,0.02495711,-0.10249050,0.,
 -0.11812934,-0.02972867,0.,-0.04028492,0.01575917,0.,0.01357939,0.1140
 8308,0.,0.14572293,0.01492912,0.,0.03056419,-0.00644473,0.,0.00328752,
 -0.08007766,0.,-0.01331768,-0.00121276,0.,-0.00105789,0.06448623,0.,-0
 .01030391,0.,0.,0.00826805,0.,0.,0.00238817,0.,0.,-0.00135257,0.,0.,0.
 00608192,-0.00707035,0.,-0.01048773,0.00417973,0.,0.00081523,-0.012912
 94,0.,-0.47769570,0.00035017,0.,0.00048992,0.00984278,0.,0.49129434,-0
 .02502590,0.,-0.01982370,0.00560004,0.,-0.00006709,-0.38133341,0.,-0.1
 6165851,-0.00324171,0.,0.00343481,0.00831980,0.,0.00561061,0.39568117,
 0.,0.00119026,0.,0.,-0.00564147,0.,0.,-0.00601896,0.,0.,0.00641640,0.,
 0.,-0.00508167,0.,0.,0.00913545,0.01675770,0.,0.02172896,-0.00359011,0
 .,-0.00249159,-0.15994200,0.,-0.16485410,0.00358945,0.,-0.00137797,-0.
 02931892,0.,-0.00441606,0.17250387,0.,0.15141077\\0.00025852,0.,-0.000
 05961,0.00010863,0.,0.00007995,-0.00021815,0.,0.00005309,-0.00029609,0
 .,-0.00013762,0.00005723,0.,0.00003519,0.00008987,0.,0.00002899\\\@


 A great many people think they are thinking when they
 are merely rearranging their prejudices.
                               -- William James
 Job cpu time:       0 days  0 hours  0 minutes 36.0 seconds.
 File lengths (MBytes):  RWF=      6 Int=      0 D2E=      0 Chk=      1 Scr=      1
 Normal termination of Gaussian 09 at Mon May  6 13:16:04 2019.
