 Entering Gaussian System, Link 0=g16
 Initial command:
 /opt/local/share/g16/g16/l1.exe "./Gau-34010.inp" -scrdir="./"
 Entering Link 1 = /opt/local/share/g16/g16/l1.exe PID=     34011.
  
 Copyright (c) 1988,1990,1992,1993,1995,1998,2003,2009,2016,
            Gaussian, Inc.  All Rights Reserved.
  
 This is part of the Gaussian(R) 16 program.  It is based on
 the Gaussian(R) 09 system (copyright 2009, Gaussian, Inc.),
 the Gaussian(R) 03 system (copyright 2003, Gaussian, Inc.),
 the Gaussian(R) 98 system (copyright 1998, Gaussian, Inc.),
 the Gaussian(R) 94 system (copyright 1995, Gaussian, Inc.),
 the Gaussian 92(TM) system (copyright 1992, Gaussian, Inc.),
 the Gaussian 90(TM) system (copyright 1990, Gaussian, Inc.),
 the Gaussian 88(TM) system (copyright 1988, Gaussian, Inc.),
 the Gaussian 86(TM) system (copyright 1986, Carnegie Mellon
 University), and the Gaussian 82(TM) system (copyright 1983,
 Carnegie Mellon University). Gaussian is a federally registered
 trademark of Gaussian, Inc.
  
 This software contains proprietary and confidential information,
 including trade secrets, belonging to Gaussian, Inc.
  
 This software is provided under written license and may be
 used, copied, transmitted, or stored only in accord with that
 written license.
  
 The following legend is applicable only to US Government
 contracts under FAR:
  
                    RESTRICTED RIGHTS LEGEND
  
 Use, reproduction and disclosure by the US Government is
 subject to restrictions as set forth in subparagraphs (a)
 and (c) of the Commercial Computer Software - Restricted
 Rights clause in FAR 52.227-19.
  
 Gaussian, Inc.
 340 Quinnipiac St., Bldg. 40, Wallingford CT 06492
  
  
 ---------------------------------------------------------------
 Warning -- This program may not be used in any manner that
 competes with the business of Gaussian, Inc. or will provide
 assistance to any competitor of Gaussian, Inc.  The licensee
 of this program is prohibited from giving any competitor of
 Gaussian, Inc. access to this program.  By using this program,
 the user acknowledges that Gaussian, Inc. is engaged in the
 business of creating and licensing software in the field of
 computational chemistry and represents and warrants to the
 licensee that it is not a competitor of Gaussian, Inc. and that
 it will not use this program in any manner prohibited above.
 ---------------------------------------------------------------
  

 Cite this work as:
 Gaussian 16, Revision A.03,
 M. J. Frisch, G. W. Trucks, H. B. Schlegel, G. E. Scuseria, 
 M. A. Robb, J. R. Cheeseman, G. Scalmani, V. Barone, 
 G. A. Petersson, H. Nakatsuji, X. Li, M. Caricato, A. V. Marenich, 
 J. Bloino, B. G. Janesko, R. Gomperts, B. Mennucci, H. P. Hratchian, 
 J. V. Ortiz, A. F. Izmaylov, J. L. Sonnenberg, D. Williams-Young, 
 F. Ding, F. Lipparini, F. Egidi, J. Goings, B. Peng, A. Petrone, 
 T. Henderson, D. Ranasinghe, V. G. Zakrzewski, J. Gao, N. Rega, 
 G. Zheng, W. Liang, M. Hada, M. Ehara, K. Toyota, R. Fukuda, 
 J. Hasegawa, M. Ishida, T. Nakajima, Y. Honda, O. Kitao, H. Nakai, 
 T. Vreven, K. Throssell, J. A. Montgomery, Jr., J. E. Peralta, 
 F. Ogliaro, M. J. Bearpark, J. J. Heyd, E. N. Brothers, K. N. Kudin, 
 V. N. Staroverov, T. A. Keith, R. Kobayashi, J. Normand, 
 K. Raghavachari, A. P. Rendell, J. C. Burant, S. S. Iyengar, 
 J. Tomasi, M. Cossi, J. M. Millam, M. Klene, C. Adamo, R. Cammi, 
 J. W. Ochterski, R. L. Martin, K. Morokuma, O. Farkas, 
 J. B. Foresman, and D. J. Fox, Gaussian, Inc., Wallingford CT, 2016.
 
 ******************************************
 Gaussian 16:  EM64M-G16RevA.03 25-Dec-2016
                 8-May-2019 
 ******************************************
 %nprocshared=2
 Will use up to    2 processors via shared memory.
 %mem=2GB
 %chk=formamide_wb97xd.dimer_freq.chk
 ----------------------------------------
 # wb97xd/6-31+g* Pop=NaturalOrbital freq
 ----------------------------------------
 1/10=4,30=1,38=1/1,3;
 2/12=2,17=6,18=5,40=1/2;
 3/5=1,6=6,7=11,11=2,25=1,30=1,71=2,74=-58,140=1/1,2,3;
 4//1;
 5/5=2,38=5,98=1/2;
 8/6=4,10=90,11=11/1;
 11/6=1,8=1,9=11,15=111,16=1/1,2,10;
 10/6=1/2;
 6/7=2,8=2,9=2,10=2,22=-1,28=1,31=1/1;
 7/8=1,10=1,25=1/1,2,3,16;
 1/10=4,30=1/3;
 99//99;
 -------------------------------------
 Formamide dimer frequency calculation
 -------------------------------------
 Symbolic Z-matrix:
 Charge =  0 Multiplicity = 1
 C                     0.458     0.479     0. 
 O                     1.657     0.285     0. 
 N                    -0.481    -0.501     0. 
 H                     0.021     1.494     0. 
 H                    -1.467    -0.288     0. 
 H                    -0.19     -1.467     0. 
 C                     0.663     0.015     5. 
 O                     1.373    -0.97      5. 
 N                    -0.694    -0.014     5. 
 H                     1.071     1.042     5. 
 H                    -1.241     0.834     5. 
 H                    -1.172    -0.903     5. 
 

 GradGradGradGradGradGradGradGradGradGradGradGradGradGradGradGradGradGrad
 Berny optimization.
 Initialization pass.
 Trust Radius=3.00D-01 FncErr=1.00D-07 GrdErr=1.00D-07 EigMax=2.50D+02 EigMin=1.00D-04
 Number of steps in this run=      2 maximum allowed number of steps=      2.
 GradGradGradGradGradGradGradGradGradGradGradGradGradGradGradGradGradGrad

                          Input orientation:                          
 ---------------------------------------------------------------------
 Center     Atomic      Atomic             Coordinates (Angstroms)
 Number     Number       Type             X           Y           Z
 ---------------------------------------------------------------------
      1          6           0        0.458000    0.479000    0.000000
      2          8           0        1.657000    0.285000    0.000000
      3          7           0       -0.481000   -0.501000    0.000000
      4          1           0        0.021000    1.494000    0.000000
      5          1           0       -1.467000   -0.288000    0.000000
      6          1           0       -0.190000   -1.467000    0.000000
      7          6           0        0.663000    0.015000    5.000000
      8          8           0        1.373000   -0.970000    5.000000
      9          7           0       -0.694000   -0.014000    5.000000
     10          1           0        1.071000    1.042000    5.000000
     11          1           0       -1.241000    0.834000    5.000000
     12          1           0       -1.172000   -0.903000    5.000000
 ---------------------------------------------------------------------
                    Distance matrix (angstroms):
                    1          2          3          4          5
     1  C    0.000000
     2  O    1.214593   0.000000
     3  N    1.357248   2.277903   0.000000
     4  H    1.105076   2.034251   2.057190   0.000000
     5  H    2.072176   3.176115   1.008744   2.321566   0.000000
     6  H    2.051053   2.545764   1.008879   2.968508   1.738036
     7  C    5.025666   5.104991   5.155094   5.253533   5.443226
     8  O    5.285530   5.162914   5.353249   5.735782   5.790572
     9  N    5.154624   5.533227   5.028174   5.271175   5.066814
    10  H    5.068800   5.090820   5.457981   5.129016   5.762842
    11  H    5.292696   5.805153   5.230662   5.198869   5.129324
    12  H    5.437538   5.866395   5.063505   5.671760   5.046311
                    6          7          8          9         10
     6  H    0.000000
     7  C    5.284310   0.000000
     8  O    5.262127   1.214218   0.000000
     9  N    5.231178   1.357310   2.277372   0.000000
    10  H    5.734562   1.105076   2.034539   2.056784   0.000000
    11  H    5.603499   2.072674   3.176069   1.009115   2.321338
    12  H    5.126638   2.051816   2.545882   1.009359   2.968851
                   11         12
    11  H    0.000000
    12  H    1.738370   0.000000
 Stoichiometry    C2H6N2O2
 Framework group  C1[X(C2H6N2O2)]
 Deg. of freedom    30
 Full point group                 C1      NOp   1
 Largest Abelian subgroup         C1      NOp   1
 Largest concise Abelian subgroup C1      NOp   1
                         Standard orientation:                         
 ---------------------------------------------------------------------
 Center     Atomic      Atomic             Coordinates (Angstroms)
 Number     Number       Type             X           Y           Z
 ---------------------------------------------------------------------
      1          6           0       -2.536478    0.009697   -0.410390
      2          8           0       -2.548636   -1.189672   -0.219067
      3          7           0       -2.445590    0.945166    0.568772
      4          1           0       -2.599925    0.450018   -1.421966
      5          1           0       -2.439435    1.931649    0.358113
      6          1           0       -2.382487    0.650975    1.531740
      7          6           0        2.478290   -0.304740   -0.307660
      8          8           0        2.533637   -1.017894    0.673499
      9          7           0        2.509917    1.051838   -0.276274
     10          1           0        2.395584   -0.709177   -1.332737
     11          1           0        2.460869    1.601569   -1.121084
     12          1           0        2.584228    1.526724    0.611288
 ---------------------------------------------------------------------
 Rotational constants (GHZ):           4.9300952           0.8546924           0.7841397
 Standard basis: 6-31+G(d) (6D, 7F)
 There are   126 symmetry adapted cartesian basis functions of A   symmetry.
 There are   126 symmetry adapted basis functions of A   symmetry.
   126 basis functions,   216 primitive gaussians,   126 cartesian basis functions
    24 alpha electrons       24 beta electrons
       nuclear repulsion energy       200.4764982954 Hartrees.
 NAtoms=   12 NActive=   12 NUniq=   12 SFac= 1.00D+00 NAtFMM=   60 NAOKFM=F Big=F
 Integral buffers will be    131072 words long.
 Raffenetti 2 integral format.
 Two-electron integral symmetry is turned on.
 Nuclear repulsion after empirical dispersion term =      200.4745563397 Hartrees.
 One-electron integrals computed using PRISM.
 NBasis=   126 RedAO= T EigKep=  2.00D-03  NBF=   126
 NBsUse=   126 1.00D-06 EigRej= -1.00D+00 NBFU=   126
 ExpMin= 4.38D-02 ExpMax= 5.48D+03 ExpMxC= 8.25D+02 IAcc=3 IRadAn=         5 AccDes= 0.00D+00
 Harris functional with IExCor= 4639 and IRadAn=       5 diagonalized for initial guess.
 HarFok:  IExCor= 4639 AccDes= 0.00D+00 IRadAn=         5 IDoV= 1 UseB2=F ITyADJ=14
 ICtDFT=  3500011 ScaDFX=  1.000000  1.000000  1.000000  1.000000
 FoFCou: FMM=F IPFlag=           0 FMFlag=      100000 FMFlg1=           0
         NFxFlg=           0 DoJE=T BraDBF=F KetDBF=T FulRan=T
         wScrn=  0.000000 ICntrl=       500 IOpCl=  0 I1Cent=   200000004 NGrid=           0
         NMat0=    1 NMatS0=      1 NMatT0=    0 NMatD0=    1 NMtDS0=    0 NMtDT0=    0
 Petite list used in FoFCou.
 Keep R1 ints in memory in canonical form, NReq=65925676.
 Requested convergence on RMS density matrix=1.00D-08 within 128 cycles.
 Requested convergence on MAX density matrix=1.00D-06.
 Requested convergence on             energy=1.00D-06.
 No special actions if energy rises.
 SCF Done:  E(RwB97XD) =  -339.687997488     A.U. after   12 cycles
            NFock= 12  Conv=0.89D-08     -V/T= 2.0092
 DoSCS=F DFT=T ScalE2(SS,OS)=  1.000000  1.000000
 Range of M.O.s used for correlation:     1   126
 NBasis=   126 NAE=    24 NBE=    24 NFC=     0 NFV=     0
 NROrb=    126 NOA=    24 NOB=    24 NVA=   102 NVB=   102
 Symmetrizing basis deriv contribution to polar:
 IMax=3 JMax=2 DiffMx= 0.00D+00
 G2DrvN: will do    13 centers at a time, making    1 passes.
 Calling FoFCou, ICntrl=  3107 FMM=F I1Cent=   0 AccDes= 0.00D+00.
 End of G2Drv F.D. properties file   721 does not exist.
 End of G2Drv F.D. properties file   722 does not exist.
 End of G2Drv F.D. properties file   788 does not exist.
          IDoAtm=111111111111
          Differentiating once with respect to electric field.
                with respect to dipole field.
          Differentiating once with respect to nuclear coordinates.
 Keep R1 ints in memory in canonical form, NReq=65930763.
          There are    39 degrees of freedom in the 1st order CPHF.  IDoFFX=6 NUNeed=     3.
     36 vectors produced by pass  0 Test12= 6.28D-15 2.56D-09 XBig12= 2.66D+01 2.19D+00.
 AX will form    36 AO Fock derivatives at one time.
     36 vectors produced by pass  1 Test12= 6.28D-15 2.56D-09 XBig12= 4.67D+00 5.30D-01.
     36 vectors produced by pass  2 Test12= 6.28D-15 2.56D-09 XBig12= 9.01D-02 5.15D-02.
     36 vectors produced by pass  3 Test12= 6.28D-15 2.56D-09 XBig12= 9.81D-04 5.97D-03.
     36 vectors produced by pass  4 Test12= 6.28D-15 2.56D-09 XBig12= 7.20D-06 4.78D-04.
     34 vectors produced by pass  5 Test12= 6.28D-15 2.56D-09 XBig12= 5.50D-08 3.88D-05.
     28 vectors produced by pass  6 Test12= 6.28D-15 2.56D-09 XBig12= 2.72D-10 1.97D-06.
      6 vectors produced by pass  7 Test12= 6.28D-15 2.56D-09 XBig12= 1.32D-12 1.62D-07.
      3 vectors produced by pass  8 Test12= 6.28D-15 2.56D-09 XBig12= 5.27D-15 9.99D-09.
 InvSVY:  IOpt=1 It=  1 EMax= 1.78D-15
 Solved reduced A of dimension   251 with    39 vectors.
 Isotropic polarizability for W=    0.000000       47.72 Bohr**3.
 End of Minotr F.D. properties file   721 does not exist.
 End of Minotr F.D. properties file   722 does not exist.
 End of Minotr F.D. properties file   788 does not exist.

 **********************************************************************

            Population analysis using the SCF density.

 **********************************************************************

 Orbital symmetries:
       Occupied  (A) (A) (A) (A) (A) (A) (A) (A) (A) (A) (A) (A)
                 (A) (A) (A) (A) (A) (A) (A) (A) (A) (A) (A) (A)
       Virtual   (A) (A) (A) (A) (A) (A) (A) (A) (A) (A) (A) (A)
                 (A) (A) (A) (A) (A) (A) (A) (A) (A) (A) (A) (A)
                 (A) (A) (A) (A) (A) (A) (A) (A) (A) (A) (A) (A)
                 (A) (A) (A) (A) (A) (A) (A) (A) (A) (A) (A) (A)
                 (A) (A) (A) (A) (A) (A) (A) (A) (A) (A) (A) (A)
                 (A) (A) (A) (A) (A) (A) (A) (A) (A) (A) (A) (A)
                 (A) (A) (A) (A) (A) (A) (A) (A) (A) (A) (A) (A)
                 (A) (A) (A) (A) (A) (A) (A) (A) (A) (A) (A) (A)
                 (A) (A) (A) (A) (A) (A)
 The electronic state is 1-A.
     Natural Orbital Coefficients:
                           1         2         3         4         5
     Eigenvalues --     2.00000   2.00000   2.00000   2.00000   2.00000
   1 1   C  1S         -0.04346   0.19548   0.08928   0.10763   0.01810
   2        2S         -0.06586   0.10095   0.04637  -0.05878   0.07423
   3        2PX         0.07624   0.05330  -0.25732   0.00842   0.11206
   4        2PY         0.06772   0.08733  -0.02513   0.05140  -0.18771
   5        2PZ        -0.20792  -0.01645  -0.02839  -0.08045  -0.05490
   6        3S          0.06296   0.01583   0.05499  -0.09282   0.07822
   7        3PX         0.03251   0.01559  -0.11877  -0.00148   0.05444
   8        3PY         0.02341   0.01583  -0.00018   0.07685  -0.00474
   9        3PZ        -0.03624  -0.04440  -0.00964  -0.02959  -0.00746
  10        4S          0.00974   0.02085  -0.00026   0.01840   0.03110
  11        4PX         0.00376   0.00502  -0.02261   0.00191   0.01080
  12        4PY         0.01333   0.00441   0.00189  -0.01163   0.01053
  13        4PZ        -0.00228   0.00253  -0.00217   0.00024   0.00181
  14        5XX         0.00979  -0.00693  -0.00251   0.00181  -0.00596
  15        5YY        -0.01783  -0.00045  -0.00630   0.00353   0.00209
  16        5ZZ         0.01513   0.00285   0.00411   0.00032  -0.00315
  17        5XY         0.00438   0.00694   0.01503   0.00948  -0.00731
  18        5XZ         0.00621   0.00545  -0.00518   0.00382   0.00286
  19        5YZ        -0.01032   0.01328  -0.00272  -0.00876  -0.01707
  20 2   O  1S         -0.09915   0.19016   0.22732  -0.01185  -0.04327
  21        2S         -0.20885   0.02151  -0.04179   0.34581   0.09566
  22        2PX         0.01653  -0.01782  -0.32745  -0.08011   0.15235
  23        2PY        -0.06531  -0.04869   0.06299  -0.25666   0.17817
  24        2PZ         0.00022  -0.09183  -0.01854   0.04382   0.03216
  25        3S         -0.20065   0.04101  -0.07602   0.47491   0.03584
  26        3PX         0.00445  -0.01517  -0.19908  -0.05389   0.09233
  27        3PY        -0.02165  -0.01949   0.02491  -0.11542   0.06964
  28        3PZ         0.00732  -0.05771  -0.00795   0.02529   0.03351
  29        4S          0.01151   0.01015  -0.01115   0.04210  -0.02223
  30        4PX        -0.00728  -0.01057  -0.01830  -0.01449   0.00779
  31        4PY        -0.00185  -0.00229   0.00062  -0.00842   0.00594
  32        4PZ         0.00719  -0.00634  -0.00083   0.00515   0.00839
  33        5XX         0.00438  -0.00207  -0.00233  -0.00193  -0.00309
  34        5YY        -0.00344  -0.00321   0.00267  -0.01635   0.00971
  35        5ZZ         0.00722  -0.00141  -0.00111  -0.00376  -0.00319
  36        5XY         0.00297   0.00070  -0.02292  -0.00355   0.01058
  37        5XZ        -0.00005   0.00003   0.00327   0.00053  -0.00149
  38        5YZ        -0.00373  -0.00462  -0.00199   0.00068  -0.00167
  39 3   N  1S          0.02704  -0.22827   0.05208   0.10454   0.28580
  40        2S         -0.10773   0.29468  -0.00269  -0.13419  -0.05069
  41        2PX         0.18311   0.13311  -0.08240   0.14164   0.06564
  42        2PY        -0.00701   0.00677  -0.06759  -0.04953  -0.02337
  43        2PZ         0.13924   0.02257   0.10819   0.01542   0.17216
  44        3S         -0.14167   0.33476  -0.00846  -0.14867  -0.09060
  45        3PX         0.13335   0.09868  -0.04015   0.11072   0.03749
  46        3PY        -0.00098   0.00056  -0.03622  -0.04000  -0.01324
  47        3PZ         0.08488   0.01078   0.06421   0.01270   0.10607
  48        4S         -0.01960  -0.01508   0.00288  -0.00330  -0.03902
  49        4PX         0.02182   0.01826   0.01181   0.02136  -0.00255
  50        4PY        -0.00409   0.01081  -0.00497  -0.00590  -0.00285
  51        4PZ         0.00823   0.00818   0.00767  -0.00487   0.01919
  52        5XX         0.00368  -0.01185   0.00057   0.00538  -0.00111
  53        5YY        -0.00958   0.00637  -0.00519  -0.00865  -0.00358
  54        5ZZ         0.00752   0.01105   0.00453   0.00153   0.00304
  55        5XY        -0.00213  -0.00064   0.00566  -0.00017  -0.00278
  56        5XZ        -0.00223   0.00022   0.00569  -0.00117  -0.00224
  57        5YZ        -0.00254  -0.00383  -0.00077   0.00081   0.00010
  58 4   H  1S          0.11497   0.04156   0.03631   0.04206   0.03670
  59        2S          0.10343  -0.00094   0.02080   0.03764   0.03784
  60 5   H  1S         -0.06052   0.08919  -0.05382  -0.07865  -0.04580
  61        2S         -0.01142  -0.01407  -0.01975  -0.01542   0.00813
  62 6   H  1S          0.06027   0.11105   0.06667  -0.01215   0.08048
  63        2S          0.04489   0.00601   0.02081   0.02034   0.03238
  64 7   C  1S          0.02646   0.05197   0.03707  -0.06205  -0.06436
  65        2S         -0.06895  -0.04125  -0.03441  -0.04860   0.08344
  66        2PX        -0.07302  -0.11584   0.10639   0.01970   0.02506
  67        2PY        -0.03879  -0.08973  -0.13887   0.08463  -0.17022
  68        2PZ        -0.17307  -0.02385  -0.03845  -0.03431  -0.10631
  69        3S          0.03043  -0.02997   0.01201  -0.05277   0.08223
  70        3PX        -0.02786  -0.04684   0.03963   0.01180   0.01111
  71        3PY        -0.00331  -0.01884  -0.03441   0.00356   0.02125
  72        3PZ        -0.04341  -0.01968  -0.01382  -0.01202  -0.07677
  73        4S          0.01133  -0.01562  -0.00600  -0.01898   0.06483
  74        4PX        -0.00404  -0.00402   0.00593   0.00738   0.00011
  75        4PY         0.00901  -0.01385  -0.00409  -0.00442   0.02098
  76        4PZ        -0.01093   0.00456  -0.00377  -0.00108  -0.00718
  77        5XX         0.00754   0.00120   0.00258   0.00370  -0.00501
  78        5YY        -0.00465   0.00186  -0.00096   0.00833  -0.01906
  79        5ZZ         0.00349  -0.00041   0.00008  -0.00653   0.02545
  80        5XY        -0.00084  -0.00718   0.01118  -0.00466   0.00082
  81        5XZ        -0.00168  -0.00203  -0.00042   0.00281   0.00356
  82        5YZ         0.02157  -0.00201   0.00080   0.00709  -0.00191
  83 8   O  1S          0.19066  -0.16777  -0.15051  -0.17861  -0.10240
  84        2S         -0.17101   0.09598  -0.02537  -0.00204   0.17440
  85        2PX        -0.03936  -0.05824   0.00630   0.07271   0.03310
  86        2PY        -0.06988  -0.12856  -0.07661  -0.09379   0.10201
  87        2PZ         0.08306  -0.02820  -0.09716   0.07294   0.06567
  88        3S         -0.14642   0.11744  -0.04840   0.04298   0.20447
  89        3PX        -0.02258  -0.02961  -0.00375   0.04536   0.01976
  90        3PY        -0.02243  -0.07759  -0.05137  -0.04705   0.07906
  91        3PZ         0.03447  -0.01975  -0.04912   0.02300   0.05224
  92        4S          0.01667   0.00342  -0.00228   0.01642   0.02759
  93        4PX         0.00096   0.00440  -0.01256   0.00808   0.00224
  94        4PY        -0.00040  -0.01059  -0.00682  -0.00935   0.02512
  95        4PZ         0.00694  -0.00650  -0.00716   0.00180   0.01351
  96        5XX         0.00211   0.00161   0.00168   0.00242  -0.00323
  97        5YY        -0.00355  -0.00660  -0.00439  -0.00050  -0.00125
  98        5ZZ         0.00015   0.00434   0.00972  -0.00117  -0.00179
  99        5XY        -0.00203  -0.00366   0.00261   0.00251   0.00129
 100        5XZ         0.00301   0.00479  -0.00228  -0.00339  -0.00172
 101        5YZ         0.00694   0.00388   0.00178   0.00418  -0.00268
 102 9   N  1S          0.09298  -0.00181   0.01086  -0.11374  -0.06775
 103        2S         -0.01537  -0.06676  -0.00854   0.04475   0.00869
 104        2PX        -0.05453  -0.16588   0.23721  -0.04971   0.04163
 105        2PY         0.09713   0.06058   0.13282  -0.04603   0.18701
 106        2PZ         0.17901   0.07574   0.08183   0.10346  -0.07994
 107        3S         -0.03885  -0.04566   0.00780   0.06708  -0.05549
 108        3PX        -0.03951  -0.12136   0.17354  -0.04254   0.03082
 109        3PY         0.06213   0.02340   0.06514  -0.02860   0.11685
 110        3PZ         0.10506   0.04495   0.04111   0.05854  -0.02841
 111        4S         -0.01464   0.02589   0.00985   0.02408  -0.08479
 112        4PX        -0.00583  -0.01881   0.02779  -0.01369   0.00584
 113        4PY         0.00458  -0.00271   0.00485  -0.00505   0.02473
 114        4PZ         0.01444   0.00163   0.00221   0.00612   0.00320
 115        5XX        -0.00008   0.00361   0.00002  -0.00047  -0.00232
 116        5YY        -0.00378  -0.00282  -0.00241  -0.00012   0.00409
 117        5ZZ         0.00336   0.00002   0.00460   0.00130   0.00794
 118        5XY         0.00264   0.00366  -0.00328  -0.00021  -0.00101
 119        5XZ         0.00067   0.00025  -0.00028   0.00059   0.00077
 120        5YZ         0.01202   0.00384   0.00536   0.00528  -0.00026
 121 10  H  1S          0.09387   0.01129   0.02747  -0.01990   0.15443
 122        2S          0.08618  -0.00141   0.01572  -0.01212   0.12682
 123 11  H  1S         -0.06745  -0.03874  -0.01107  -0.05165   0.09965
 124        2S         -0.02676  -0.01683  -0.01185  -0.03225   0.05453
 125 12  H  1S          0.11723   0.02913   0.08594   0.05276   0.02723
 126        2S          0.05148   0.01769   0.03078   0.00950   0.02944
                           6         7         8         9        10
     Eigenvalues --     2.00000   2.00000   2.00000   2.00000   2.00000
   1 1   C  1S         -0.27401   0.09342  -0.23021  -0.27656  -0.31307
   2        2S         -0.05395   0.07950  -0.07861   0.00340  -0.02213
   3        2PX         0.01072  -0.10776   0.06573  -0.11024   0.06927
   4        2PY         0.20694  -0.17543  -0.04859  -0.04210  -0.07737
   5        2PZ         0.05006   0.01249   0.12113   0.01439  -0.03513
   6        3S         -0.05811   0.03233  -0.04897   0.03283   0.02118
   7        3PX        -0.00593  -0.05367   0.01832  -0.05988   0.03245
   8        3PY         0.04203  -0.01556  -0.04010  -0.01312   0.01103
   9        3PZ        -0.00602   0.00278   0.04658   0.01391   0.00842
  10        4S          0.00468   0.01474  -0.02063   0.00263   0.05029
  11        4PX        -0.00062  -0.01008  -0.00167  -0.01235   0.01205
  12        4PY         0.00488  -0.00272  -0.00789   0.00221   0.01701
  13        4PZ         0.00083   0.00322   0.00235   0.00119   0.01040
  14        5XX         0.00668  -0.00753   0.00680   0.00267   0.00231
  15        5YY        -0.00809   0.00998   0.00235   0.00073   0.00081
  16        5ZZ         0.01431  -0.01064  -0.00519   0.00023   0.00376
  17        5XY         0.01242   0.01331   0.01406   0.02064  -0.00240
  18        5XZ         0.00526  -0.00024   0.00660   0.00231   0.00253
  19        5YZ         0.00948  -0.00844   0.00217  -0.00455  -0.01495
  20 2   O  1S         -0.26214  -0.49249   0.24281   0.05511   0.07667
  21        2S         -0.03454   0.15118  -0.03642  -0.04553   0.04086
  22        2PX        -0.10286  -0.19487  -0.07406  -0.26274   0.07695
  23        2PY        -0.20893   0.15529   0.04551   0.08446   0.06382
  24        2PZ         0.06579  -0.01483   0.03212   0.02902   0.11530
  25        3S          0.05663   0.10793  -0.06345  -0.07949   0.03112
  26        3PX        -0.06869  -0.12247  -0.05519  -0.16752   0.04592
  27        3PY        -0.07894   0.05759   0.01687   0.03756   0.03128
  28        3PZ         0.03029  -0.00127   0.01400   0.02073   0.08015
  29        4S          0.03528  -0.02071  -0.02224  -0.01429  -0.00109
  30        4PX        -0.01701  -0.01790  -0.01991  -0.02753   0.00104
  31        4PY        -0.01009   0.00668   0.00050   0.00308   0.00552
  32        4PZ         0.00504  -0.00068  -0.00454   0.00423   0.01607
  33        5XX         0.00418  -0.00016  -0.00120  -0.00094  -0.00217
  34        5YY        -0.00803   0.01209   0.00053   0.00472   0.00237
  35        5ZZ         0.00346  -0.00082  -0.00209  -0.00085  -0.00288
  36        5XY        -0.00474  -0.01221  -0.00166  -0.01560   0.00570
  37        5XZ         0.00099   0.00179   0.00070   0.00257  -0.00068
  38        5YZ         0.00483  -0.00176   0.00416   0.00129   0.00367
  39 3   N  1S         -0.12574  -0.24924  -0.02845   0.18982  -0.02395
  40        2S          0.13423  -0.02837  -0.10335  -0.02067   0.00560
  41        2PX         0.15151   0.05891   0.23485   0.14260   0.07453
  42        2PY        -0.10384   0.01488  -0.05277   0.00296   0.05183
  43        2PZ        -0.02786   0.06303  -0.08207  -0.00429   0.11719
  44        3S          0.14545  -0.02098  -0.09074  -0.03497  -0.02791
  45        3PX         0.12044   0.05572   0.17962   0.12354   0.04974
  46        3PY        -0.05734   0.00406  -0.02804   0.00349   0.02992
  47        3PZ        -0.01305   0.03333  -0.05817  -0.00466   0.07435
  48        4S          0.00070  -0.01303   0.02413  -0.00533  -0.05854
  49        4PX         0.02671   0.02065   0.03699   0.03580   0.00422
  50        4PY        -0.00419   0.00156  -0.00755  -0.00044   0.00366
  51        4PZ        -0.00103   0.00558  -0.01440  -0.00110   0.01524
  52        5XX        -0.00461   0.00273   0.00516  -0.00017  -0.00159
  53        5YY        -0.00220   0.00455  -0.00032  -0.00088   0.00253
  54        5ZZ         0.00717   0.00169  -0.00709  -0.00277   0.00397
  55        5XY         0.00042   0.00277  -0.00061   0.00315  -0.00163
  56        5XZ         0.00023   0.00174  -0.00312   0.00134  -0.00132
  57        5YZ        -0.00124   0.00034   0.00262   0.00047  -0.00231
  58 4   H  1S          0.00603  -0.01051  -0.10336  -0.00412   0.02680
  59        2S          0.00813  -0.01544  -0.06389  -0.00133   0.04809
  60 5   H  1S         -0.01777   0.00022  -0.04520  -0.00279   0.02240
  61        2S         -0.03008   0.01118  -0.00262   0.00625   0.02463
  62 6   H  1S          0.05363   0.02397  -0.06677  -0.00769   0.06108
  63        2S          0.00593   0.00462  -0.02168  -0.00133   0.02436
  64 7   C  1S         -0.04958   0.04169  -0.10649  -0.00610   0.05480
  65        2S          0.02899   0.00530  -0.08614   0.15655   0.11780
  66        2PX         0.17421  -0.10249  -0.12514  -0.07018   0.10971
  67        2PY        -0.00926   0.01063  -0.10359   0.00376  -0.07191
  68        2PZ        -0.07925   0.03958   0.04302  -0.00374   0.20203
  69        3S         -0.01344  -0.01376  -0.07428   0.11099   0.07987
  70        3PX         0.07611  -0.04684  -0.06469  -0.01642   0.04629
  71        3PY        -0.00405  -0.00397  -0.02586  -0.00460  -0.02875
  72        3PZ        -0.04314   0.00922   0.01295  -0.00756   0.04106
  73        4S         -0.00756  -0.00845  -0.01949   0.00493  -0.03293
  74        4PX         0.01528  -0.00585  -0.01253   0.00406   0.01126
  75        4PY        -0.00868  -0.00372  -0.01677   0.00519  -0.01750
  76        4PZ         0.00139   0.00167   0.01217  -0.00649  -0.00063
  77        5XX        -0.00133  -0.00191   0.00255  -0.00837  -0.00795
  78        5YY         0.00550   0.00232   0.00527  -0.00023  -0.00236
  79        5ZZ        -0.00147  -0.00254  -0.00121   0.00041  -0.00428
  80        5XY        -0.00025   0.00081   0.01243  -0.02191  -0.00247
  81        5XZ         0.00820  -0.00542  -0.01296   0.00795   0.00575
  82        5YZ        -0.00635  -0.00161  -0.01413  -0.00206  -0.00567
  83 8   O  1S          0.20076   0.51340  -0.09914  -0.20745   0.05887
  84        2S          0.12992   0.04400   0.14325  -0.05245   0.03742
  85        2PX         0.18665  -0.11964  -0.26105   0.12015   0.10547
  86        2PY        -0.10308  -0.01433  -0.13623   0.08261   0.09629
  87        2PZ         0.00580  -0.01324  -0.05657  -0.10306  -0.24753
  88        3S          0.16859   0.03459   0.15407  -0.09491  -0.07207
  89        3PX         0.11013  -0.07162  -0.16428   0.08748   0.06628
  90        3PY        -0.05360  -0.01348  -0.08906   0.04097   0.01548
  91        3PZ        -0.00636  -0.00633  -0.03219  -0.04635  -0.10686
  92        4S          0.02029  -0.00615  -0.00447  -0.01251  -0.05821
  93        4PX         0.00698  -0.00588  -0.02492   0.02747   0.00502
  94        4PY        -0.00291  -0.00486  -0.01288   0.00333  -0.01226
  95        4PZ        -0.00077  -0.00158  -0.01144  -0.00045  -0.01140
  96        5XX        -0.00355  -0.00386   0.00150  -0.00013  -0.00398
  97        5YY        -0.00805  -0.00464  -0.00760   0.00401   0.00142
  98        5ZZ        -0.00068  -0.00434   0.00294   0.00649   0.01036
  99        5XY         0.00873  -0.00539  -0.00946   0.00171   0.00467
 100        5XZ        -0.01105   0.00690   0.01296  -0.00313  -0.00596
 101        5YZ         0.00192  -0.00020   0.00360  -0.00591  -0.01013
 102 9   N  1S          0.01794   0.01751   0.07003   0.00366   0.12247
 103        2S          0.05236   0.00809  -0.07236   0.04339  -0.12731
 104        2PX         0.11831  -0.06078   0.08743  -0.34893   0.05258
 105        2PY        -0.00072  -0.01856   0.07343  -0.05980  -0.11425
 106        2PZ        -0.11641   0.03591  -0.06421  -0.08195   0.22922
 107        3S          0.06233   0.02040  -0.03106   0.02613  -0.11847
 108        3PX         0.07696  -0.03759   0.08151  -0.26521   0.02822
 109        3PY        -0.00592  -0.01373   0.01857  -0.02155  -0.06316
 110        3PZ        -0.06317   0.01922  -0.04337  -0.03855   0.12584
 111        4S          0.00955   0.01395   0.03301  -0.01198   0.04176
 112        4PX         0.00360  -0.00201   0.02753  -0.05589  -0.00137
 113        4PY         0.00204  -0.00251  -0.00429   0.00602  -0.01190
 114        4PZ        -0.00943   0.00127  -0.01334   0.00180   0.01769
 115        5XX        -0.00262  -0.00007   0.00333  -0.00227   0.00557
 116        5YY         0.00121  -0.00035  -0.00435   0.00447   0.00039
 117        5ZZ         0.00130  -0.00075  -0.00072  -0.00222  -0.00986
 118        5XY        -0.00570   0.00332   0.00340   0.00218  -0.00270
 119        5XZ         0.00026  -0.00010  -0.00128   0.00136  -0.00106
 120        5YZ        -0.00202   0.00048  -0.00346  -0.00418   0.00583
 121 10  H  1S          0.03254  -0.02195  -0.04705   0.05281  -0.05812
 122        2S          0.00429  -0.02069  -0.04704   0.01284  -0.06647
 123 11  H  1S          0.06386  -0.01890   0.02541   0.04570  -0.18171
 124        2S          0.00919  -0.01066   0.00418   0.01524  -0.04618
 125 12  H  1S         -0.03381   0.01086  -0.03354  -0.05775   0.03578
 126        2S         -0.01130  -0.00133  -0.00646  -0.02321   0.00614
                          11        12        13        14        15
     Eigenvalues --     2.00000   2.00000   2.00000   2.00000   2.00000
   1 1   C  1S          0.07704  -0.22152  -0.12709   0.33096  -0.51516
   2        2S          0.11223   0.03960   0.02620  -0.03849   0.02277
   3        2PX         0.04116   0.00729  -0.00807   0.05592  -0.01877
   4        2PY         0.06778  -0.01053   0.08840  -0.06770  -0.11221
   5        2PZ         0.06745   0.03205  -0.06542  -0.19997  -0.08926
   6        3S          0.03868   0.04427   0.00719   0.02251   0.01387
   7        3PX         0.00610   0.00220  -0.00154   0.02344  -0.00349
   8        3PY         0.03189   0.01305  -0.00818  -0.00462  -0.00957
   9        3PZ         0.00994   0.01594  -0.06407  -0.02408  -0.02700
  10        4S          0.03343   0.02629  -0.05544   0.01990   0.02020
  11        4PX         0.00111  -0.00128  -0.00489   0.00378   0.00280
  12        4PY         0.00953   0.01737  -0.02500   0.00551  -0.00851
  13        4PZ         0.01070   0.00696  -0.01651   0.00445   0.00390
  14        5XX        -0.00625  -0.00115   0.00013   0.00267  -0.00168
  15        5YY         0.00079  -0.00279   0.00075  -0.00031   0.02133
  16        5ZZ        -0.00083   0.00561   0.00343  -0.00527  -0.00895
  17        5XY         0.01423   0.00153  -0.00605   0.00765  -0.00490
  18        5XZ         0.00699   0.00138  -0.00216   0.00528  -0.00297
  19        5YZ        -0.00389  -0.00950   0.02473  -0.01238  -0.00097
  20 2   O  1S         -0.14980   0.23039  -0.05100   0.00575  -0.11073
  21        2S          0.04521  -0.02046  -0.01733  -0.05472   0.15883
  22        2PX        -0.08882  -0.00399   0.03913  -0.02184   0.03219
  23        2PY         0.02174   0.08087  -0.12815   0.03016   0.05789
  24        2PZ         0.12239   0.13800  -0.30954  -0.03328  -0.11656
  25        3S          0.06362  -0.03916  -0.00052  -0.07159   0.14673
  26        3PX        -0.06312  -0.00367   0.02703  -0.01966   0.02274
  27        3PY         0.01857   0.04347  -0.07017   0.01470   0.01764
  28        3PZ         0.07733   0.09075  -0.20123  -0.00820  -0.06446
  29        4S          0.00467   0.00059  -0.00847   0.00628  -0.00735
  30        4PX        -0.01780  -0.00119   0.00897  -0.01146   0.00739
  31        4PY         0.00076   0.00336  -0.01437   0.01056   0.00659
  32        4PZ         0.01462   0.01795  -0.03726   0.00513  -0.00743
  33        5XX        -0.00062  -0.00305   0.00217   0.00089  -0.00209
  34        5YY         0.00395   0.00395  -0.00663  -0.00104   0.00199
  35        5ZZ        -0.00291  -0.00417   0.00541   0.00261  -0.00170
  36        5XY        -0.00307  -0.00001   0.00161   0.00071   0.00118
  37        5XZ         0.00081   0.00016  -0.00058   0.00019  -0.00047
  38        5YZ         0.00619   0.00592  -0.01458  -0.00491  -0.00714
  39 3   N  1S          0.36349  -0.34107   0.26651   0.09617  -0.03943
  40        2S          0.09482   0.06579   0.01800  -0.04937   0.05756
  41        2PX         0.20962   0.03786  -0.10874   0.19748  -0.07648
  42        2PY        -0.01936  -0.00489  -0.13875   0.24433   0.22129
  43        2PZ        -0.13749   0.04985  -0.01553   0.04495  -0.02729
  44        3S          0.05664   0.04081   0.07817  -0.06858   0.07786
  45        3PX         0.16433   0.02949  -0.08581   0.14585  -0.06090
  46        3PY        -0.00610   0.00273  -0.08422   0.13232   0.11456
  47        3PZ        -0.06619   0.03991  -0.02014   0.01885  -0.02333
  48        4S         -0.03780  -0.04221   0.08013  -0.02895  -0.01560
  49        4PX         0.03677   0.00632  -0.01660   0.02686  -0.01174
  50        4PY         0.00291   0.00036  -0.00930   0.01562   0.02035
  51        4PZ        -0.00020   0.01313  -0.01081   0.00008   0.00010
  52        5XX        -0.00731  -0.00161  -0.00069   0.00001  -0.00308
  53        5YY         0.00173   0.00580  -0.01205   0.00443   0.01063
  54        5ZZ        -0.00348   0.00672   0.00158  -0.00228  -0.00334
  55        5XY         0.00029   0.00014  -0.00037  -0.00137   0.00016
  56        5XZ        -0.00123   0.00043   0.00079  -0.00251   0.00045
  57        5YZ         0.00319  -0.00052   0.00157  -0.00472  -0.00225
  58 4   H  1S          0.02603   0.02414   0.01433   0.07162   0.02040
  59        2S          0.01490   0.03905  -0.05193   0.06632  -0.00928
  60 5   H  1S          0.03489   0.02063  -0.08773   0.11458   0.14527
  61        2S          0.01323   0.01600  -0.06654   0.04833   0.04231
  62 6   H  1S         -0.03768   0.05304   0.01530  -0.01879  -0.03514
  63        2S         -0.01906   0.01203  -0.00340   0.01273  -0.01398
  64 7   C  1S         -0.04009  -0.33582  -0.20105  -0.02645  -0.27670
  65        2S          0.05146   0.03225   0.19891   0.02940  -0.06126
  66        2PX        -0.02239  -0.03786  -0.10177   0.07730   0.00522
  67        2PY         0.03663   0.14702   0.02233   0.03754  -0.05517
  68        2PZ        -0.01001   0.05427   0.03295   0.14071  -0.15204
  69        3S          0.09265  -0.00531   0.10198  -0.04894   0.02515
  70        3PX        -0.02101  -0.02306  -0.05513   0.02940   0.00296
  71        3PY         0.02613   0.02710  -0.03059  -0.05051  -0.02536
  72        3PZ         0.01336   0.00577  -0.02418   0.05795  -0.02349
  73        4S         -0.00306   0.03508  -0.00174  -0.04484  -0.02216
  74        4PX        -0.00319  -0.00788  -0.01382   0.00615   0.00351
  75        4PY         0.01265   0.02160  -0.01213  -0.02211  -0.00740
  76        4PZ        -0.01538  -0.00809   0.00334   0.01301  -0.00223
  77        5XX        -0.00050  -0.00180  -0.01246  -0.00420   0.00829
  78        5YY        -0.01359   0.00544   0.01454   0.02312   0.00527
  79        5ZZ         0.00980   0.00229  -0.00818  -0.02235  -0.00215
  80        5XY         0.01788   0.00738   0.00979   0.00336   0.00345
  81        5XZ        -0.00847  -0.00473  -0.00923  -0.00077  -0.00144
  82        5YZ         0.00912   0.00829  -0.00558  -0.01888   0.00616
  83 8   O  1S          0.04338  -0.04450   0.04994  -0.01872   0.03265
  84        2S         -0.17939  -0.02378   0.07427   0.01152  -0.15056
  85        2PX        -0.17586  -0.09687  -0.21006   0.01405  -0.01513
  86        2PY         0.19526   0.12334  -0.06378  -0.10565  -0.13645
  87        2PZ         0.05042   0.10637  -0.17185  -0.22813  -0.03156
  88        3S         -0.21917  -0.00992   0.03665  -0.04418  -0.14513
  89        3PX        -0.11576  -0.06265  -0.13064   0.00557  -0.01155
  90        3PY         0.11932   0.08129  -0.05967  -0.09350  -0.07388
  91        3PZ         0.04049   0.05736  -0.08722  -0.12631  -0.02953
  92        4S         -0.00187   0.01191  -0.03466  -0.03318   0.00515
  93        4PX        -0.02537  -0.00896  -0.01823  -0.00546  -0.00510
  94        4PY         0.01732   0.01104  -0.01817  -0.02180  -0.00822
  95        4PZ         0.01515   0.01244  -0.00682  -0.02373  -0.00415
  96        5XX         0.00114  -0.00017  -0.00232  -0.00034   0.00291
  97        5YY         0.01014   0.00872  -0.00558  -0.00380  -0.00606
  98        5ZZ        -0.00318  -0.00764   0.00818   0.00947   0.00643
  99        5XY        -0.00547  -0.00382  -0.00789   0.00191   0.00030
 100        5XZ         0.00735   0.00456   0.01079  -0.00200   0.00045
 101        5YZ        -0.00415  -0.00338  -0.00476  -0.00276   0.00622
 102 9   N  1S          0.02503  -0.12900  -0.11195  -0.09040  -0.06680
 103        2S         -0.08058   0.26757   0.10290   0.16615  -0.04349
 104        2PX         0.21565   0.06346   0.05584   0.09042   0.05094
 105        2PY        -0.06611  -0.00533  -0.14851  -0.04874   0.05069
 106        2PZ        -0.01476   0.09865   0.07260  -0.12381  -0.04752
 107        3S         -0.14063   0.26126   0.13950   0.25695  -0.03127
 108        3PX         0.17344   0.05352   0.05396   0.06550   0.03850
 109        3PY        -0.01753   0.00832  -0.08215  -0.05085   0.02329
 110        3PZ        -0.00872   0.05770   0.04109  -0.08593  -0.03054
 111        4S         -0.02114  -0.04369   0.02026   0.06171   0.01984
 112        4PX         0.04102   0.01642   0.02087   0.00915   0.00644
 113        4PY        -0.00229   0.01284  -0.00195  -0.00476  -0.00142
 114        4PZ         0.00731   0.01149   0.00254  -0.01886  -0.00649
 115        5XX         0.00257  -0.01145  -0.00323  -0.00551   0.00246
 116        5YY         0.00190   0.00556   0.00570   0.00137  -0.00219
 117        5ZZ        -0.00438   0.00997  -0.00210   0.00235   0.00104
 118        5XY         0.00057   0.00193   0.00375  -0.00260  -0.00052
 119        5XZ        -0.00173   0.00140  -0.00044   0.00020  -0.00026
 120        5YZ         0.00012   0.00220   0.00395  -0.00897   0.00223
 121 10  H  1S          0.04312  -0.01837   0.02608  -0.12698   0.05644
 122        2S          0.05350   0.00386  -0.04746  -0.13887   0.03044
 123 11  H  1S         -0.03923   0.03806  -0.05376   0.09471   0.01622
 124        2S          0.01360  -0.00444  -0.04309  -0.00630  -0.00374
 125 12  H  1S         -0.03976   0.13155   0.02925  -0.03158  -0.01478
 126        2S         -0.00068   0.01213  -0.01041  -0.04746   0.00720
                          16        17        18        19        20
     Eigenvalues --     2.00000   2.00000   2.00000   2.00000   2.00000
   1 1   C  1S         -0.21703  -0.12632  -0.04745  -0.12624  -0.11309
   2        2S          0.02604  -0.15760  -0.02328  -0.01264   0.02286
   3        2PX         0.00324  -0.10316  -0.01021   0.06732  -0.00027
   4        2PY         0.01845   0.01500  -0.10024  -0.03671   0.02764
   5        2PZ        -0.01996  -0.18155   0.12302   0.06683  -0.01100
   6        3S          0.03616  -0.06561  -0.03153  -0.07301   0.03085
   7        3PX         0.00775  -0.04349  -0.00557   0.02188   0.00434
   8        3PY         0.04845   0.01125  -0.05252  -0.05677   0.03773
   9        3PZ         0.00799  -0.03239   0.04602  -0.02373  -0.01353
  10        4S          0.04069   0.00887  -0.01110  -0.05664   0.02535
  11        4PX         0.00341  -0.00737  -0.00200  -0.00004   0.00373
  12        4PY         0.02110   0.00030  -0.00257  -0.03896   0.01585
  13        4PZ         0.00839   0.00289   0.00279  -0.01235  -0.00019
  14        5XX        -0.00105   0.01061  -0.00023  -0.00010  -0.00100
  15        5YY        -0.00232  -0.00142   0.00787   0.01449  -0.01045
  16        5ZZ         0.00765   0.00615  -0.00975  -0.01199   0.01391
  17        5XY        -0.00783   0.00406   0.00169   0.00537  -0.00758
  18        5XZ        -0.00179  -0.00276  -0.00102   0.00345  -0.00136
  19        5YZ        -0.01713  -0.00238   0.00286   0.02928  -0.00695
  20 2   O  1S         -0.11531   0.02835  -0.13643   0.05076  -0.05232
  21        2S          0.06219  -0.00805  -0.03864   0.08487   0.02719
  22        2PX         0.07425  -0.11619  -0.01959  -0.00070   0.06523
  23        2PY         0.00324  -0.14802   0.13320  -0.04339  -0.03034
  24        2PZ         0.19416  -0.06290   0.02125  -0.31717   0.08871
  25        3S          0.09094   0.04122  -0.09141   0.07275   0.04890
  26        3PX         0.04946  -0.06909  -0.01241  -0.00598   0.04410
  27        3PY         0.01211  -0.06280   0.05659  -0.03951  -0.01031
  28        3PZ         0.12753  -0.03608   0.01126  -0.20948   0.05722
  29        4S          0.01906   0.02991  -0.01854  -0.02549   0.01071
  30        4PX         0.01003  -0.00641  -0.00171  -0.00564   0.00880
  31        4PY         0.00119   0.00183   0.00832  -0.00622  -0.00577
  32        4PZ         0.02531  -0.00277  -0.00119  -0.04213   0.01092
  33        5XX        -0.00082   0.00191   0.00065  -0.00023  -0.00040
  34        5YY         0.00159  -0.01118   0.00852  -0.00361   0.00001
  35        5ZZ        -0.00270   0.00412  -0.00023   0.00141  -0.00060
  36        5XY         0.00357  -0.00842  -0.00120   0.00198   0.00303
  37        5XZ        -0.00059   0.00115   0.00024  -0.00034  -0.00053
  38        5YZ         0.00750  -0.00500   0.00339  -0.01220   0.00261
  39 3   N  1S         -0.05199   0.12498   0.52240  -0.01217   0.30143
  40        2S         -0.00593   0.02713   0.06244   0.05996   0.05244
  41        2PX        -0.07477  -0.02797  -0.00435   0.09966  -0.07662
  42        2PY         0.01204   0.17907   0.07704  -0.05549  -0.16407
  43        2PZ         0.04422   0.15646  -0.05112  -0.08762   0.19365
  44        3S         -0.06331   0.03777   0.06194   0.16135   0.01625
  45        3PX        -0.05893  -0.01706  -0.00139   0.07181  -0.06154
  46        3PY         0.01093   0.09045   0.04476  -0.04221  -0.08895
  47        3PZ         0.04613   0.07737  -0.03999  -0.07999   0.12621
  48        4S         -0.05543  -0.01298   0.00457   0.08691  -0.02657
  49        4PX        -0.01204   0.00134   0.00004   0.01013  -0.01441
  50        4PY        -0.00103   0.01235   0.00664   0.00112  -0.01215
  51        4PZ         0.01487   0.00372  -0.00495  -0.02125   0.02160
  52        5XX        -0.00065  -0.00218  -0.00606  -0.00077  -0.00456
  53        5YY         0.00154  -0.00070   0.00436  -0.00051  -0.01037
  54        5ZZ         0.00404   0.00315  -0.01125  -0.00396   0.00998
  55        5XY        -0.00027   0.00145   0.00063  -0.00113  -0.00048
  56        5XZ         0.00065   0.00222  -0.00011  -0.00195   0.00155
  57        5YZ         0.00042  -0.00854  -0.00057   0.00072  -0.00099
  58 4   H  1S          0.06472   0.04682  -0.09820  -0.10926   0.05217
  59        2S          0.07775   0.05353  -0.06297  -0.14050   0.05461
  60 5   H  1S          0.00381   0.08109   0.07159  -0.00807  -0.10319
  61        2S          0.02263   0.01678   0.02674  -0.04174  -0.03333
  62 6   H  1S          0.02317   0.06913  -0.03618  -0.02476   0.14618
  63        2S          0.01671   0.03331  -0.02503  -0.03067   0.04434
  64 7   C  1S          0.66977   0.13560   0.06983   0.40543  -0.16487
  65        2S          0.03369  -0.04619  -0.12552  -0.05018  -0.16019
  66        2PX        -0.07911  -0.06166   0.02138   0.04180  -0.03946
  67        2PY         0.05265   0.06404   0.11491  -0.08741   0.00441
  68        2PZ        -0.07066   0.08727  -0.03907   0.09800   0.16289
  69        3S         -0.03591  -0.06509  -0.14682  -0.01356  -0.11476
  70        3PX        -0.04167  -0.03318   0.01152   0.02110  -0.01361
  71        3PY        -0.02620   0.07167   0.00259  -0.00145  -0.02626
  72        3PZ        -0.01594   0.01598  -0.02361   0.05014   0.10215
  73        4S         -0.02923   0.03641  -0.01155   0.02947  -0.03394
  74        4PX        -0.00854  -0.00845   0.00217   0.00345  -0.00213
  75        4PY        -0.01578   0.02151  -0.00895   0.02172  -0.01165
  76        4PZ         0.00556  -0.00250   0.00630  -0.00362   0.01400
  77        5XX        -0.00586  -0.00067   0.00604   0.00032   0.00837
  78        5YY         0.01226  -0.01985   0.01530  -0.01382   0.01057
  79        5ZZ        -0.01842   0.01874  -0.01259   0.00511  -0.01209
  80        5XY         0.00976   0.00699  -0.00436  -0.00159  -0.00465
  81        5XZ        -0.00916  -0.00529   0.00216   0.00281  -0.00252
  82        5YZ        -0.00220  -0.00185   0.00844   0.00164  -0.01292
  83 8   O  1S         -0.20860  -0.07733  -0.02923   0.14256   0.13402
  84        2S         -0.02173   0.15710   0.10150  -0.10699  -0.08968
  85        2PX        -0.17124  -0.11873   0.07595   0.05210  -0.02709
  86        2PY        -0.19293   0.22136  -0.21822   0.18352  -0.01661
  87        2PZ        -0.03199   0.25373   0.14120  -0.03453  -0.10605
  88        3S          0.00583   0.20838   0.19677  -0.16898  -0.14007
  89        3PX        -0.10936  -0.07583   0.04639   0.03315  -0.01340
  90        3PY        -0.11409   0.15068  -0.11439   0.10255  -0.02984
  91        3PZ        -0.03567   0.14734   0.04621   0.00078  -0.05847
  92        4S          0.00737   0.03047   0.02923  -0.00645  -0.02636
  93        4PX        -0.01721  -0.01063   0.00834   0.00354   0.00169
  94        4PY        -0.01702   0.02844  -0.01835   0.01953  -0.00778
  95        4PZ        -0.00911   0.02211  -0.00157  -0.00245  -0.01892
  96        5XX         0.00426  -0.00103   0.00171  -0.00111   0.00125
  97        5YY        -0.00572   0.01120  -0.00641   0.00714   0.00112
  98        5ZZ         0.00524  -0.01821  -0.00544  -0.00074   0.00119
  99        5XY        -0.00588  -0.00512   0.00276   0.00205  -0.00151
 100        5XZ         0.00835   0.00568  -0.00365  -0.00285   0.00182
 101        5YZ         0.00553  -0.00278   0.00922  -0.00437   0.00041
 102 9   N  1S          0.13634   0.10107  -0.03731   0.17050   0.16288
 103        2S          0.10374  -0.07915   0.10390   0.09171   0.01694
 104        2PX         0.06904   0.04835  -0.04009   0.01476  -0.09456
 105        2PY        -0.04932  -0.00242  -0.01886   0.21760   0.06391
 106        2PZ        -0.04799  -0.05938   0.20239   0.03488  -0.12930
 107        3S          0.15001  -0.14706   0.15463   0.06863   0.06993
 108        3PX         0.06212   0.04706  -0.03711   0.00623  -0.06955
 109        3PY        -0.03952   0.01110  -0.02273   0.12302   0.01294
 110        3PZ        -0.03364  -0.02577   0.11344   0.01583  -0.09005
 111        4S          0.04137  -0.05271   0.03403  -0.04417   0.03987
 112        4PX         0.02103   0.01662  -0.01175  -0.00340  -0.01052
 113        4PY        -0.00577   0.00080  -0.00728   0.01758  -0.00549
 114        4PZ        -0.01169   0.00379   0.00691   0.00400  -0.01859
 115        5XX        -0.00440   0.00179  -0.00287  -0.00628  -0.00082
 116        5YY        -0.00227   0.00035  -0.00310  -0.00224  -0.00568
 117        5ZZ        -0.00004  -0.00213   0.00410   0.00914   0.00011
 118        5XY         0.00237   0.00170   0.00004  -0.00126   0.00065
 119        5XZ        -0.00022  -0.00093   0.00110   0.00131   0.00010
 120        5YZ         0.00030  -0.00542   0.00967  -0.00273  -0.01163
 121 10  H  1S         -0.00523  -0.02624  -0.05698  -0.03047  -0.16395
 122        2S         -0.03830   0.03998  -0.03750   0.02422  -0.10914
 123 11  H  1S          0.02792   0.01167  -0.07744   0.08645   0.09380
 124        2S         -0.02405   0.04403  -0.05786   0.03717   0.02360
 125 12  H  1S         -0.00328  -0.05376   0.12712   0.09902  -0.06043
 126        2S         -0.01347  -0.00392   0.02581   0.02336  -0.03485
                          21        22        23        24        25
     Eigenvalues --     2.00000   2.00000   2.00000   2.00000   0.00000
   1 1   C  1S         -0.08954   0.14274   0.11390  -0.27230   0.05345
   2        2S          0.07579  -0.13933   0.02880   0.24637   0.22283
   3        2PX         0.05649   0.00140  -0.00282  -0.01048  -0.01118
   4        2PY        -0.15953  -0.06069  -0.02853   0.07541   0.23096
   5        2PZ        -0.00218   0.06276  -0.01272  -0.13946   0.05705
   6        3S          0.06440  -0.11411   0.00959   0.22715  -4.58339
   7        3PX         0.01880   0.00030  -0.00084  -0.00377  -0.02618
   8        3PY        -0.06451  -0.02652  -0.00462   0.05208   1.40730
   9        3PZ        -0.03083   0.03213  -0.00520  -0.05166  -2.29490
  10        4S         -0.01875   0.01050  -0.00055   0.00774  -6.06638
  11        4PX         0.00221   0.00249   0.00022  -0.00287  -0.44582
  12        4PY        -0.01643  -0.00199  -0.00393   0.01084  -0.80615
  13        4PZ        -0.00935   0.00866  -0.00041  -0.00979  -2.47186
  14        5XX        -0.00411   0.00561  -0.00281  -0.00965   0.29994
  15        5YY         0.00351  -0.00118   0.00335  -0.00139  -0.18135
  16        5ZZ        -0.00511  -0.00178  -0.00463   0.00528  -0.03629
  17        5XY         0.00564  -0.00018  -0.00024   0.00135  -0.01082
  18        5XZ         0.00445  -0.00068  -0.00035   0.00156  -0.01986
  19        5YZ         0.01289   0.00100   0.00017  -0.01032  -0.00222
  20 2   O  1S         -0.01469   0.52483   0.11033   0.37912  -0.05021
  21        2S         -0.03236   0.02761   0.03561  -0.04057  -0.33316
  22        2PX        -0.00863   0.00176   0.00062  -0.01645  -0.00901
  23        2PY         0.16862  -0.03169   0.02626   0.10499  -0.03723
  24        2PZ        -0.26275   0.04437  -0.03499  -0.01365   0.07205
  25        3S         -0.13105   0.03187   0.02425  -0.07689   2.30083
  26        3PX        -0.01109   0.00081   0.00051  -0.01015  -0.06046
  27        3PY         0.05147  -0.01549   0.00821   0.05021   1.46448
  28        3PZ        -0.16151   0.02332  -0.02011   0.00439  -0.09040
  29        4S         -0.05523   0.00132  -0.00576  -0.01127   2.09144
  30        4PX        -0.00753   0.00038   0.00047  -0.00196   0.23999
  31        4PY        -0.00066   0.00446   0.00157  -0.00381   0.14658
  32        4PZ        -0.03093  -0.00154  -0.00309   0.01224   0.49801
  33        5XX        -0.00103  -0.00325  -0.00156  -0.00518  -0.16229
  34        5YY         0.00978  -0.00710   0.00022   0.00473   0.12611
  35        5ZZ         0.00193  -0.00365  -0.00149  -0.00450  -0.24388
  36        5XY         0.00136   0.00011  -0.00001  -0.00104   0.05508
  37        5XZ        -0.00008   0.00005  -0.00006   0.00013   0.08233
  38        5YZ        -0.01310   0.00382  -0.00192  -0.00486  -0.09569
  39 3   N  1S         -0.15799   0.11898  -0.00069   0.11763   0.05758
  40        2S          0.02524   0.04840  -0.01245  -0.08207   0.06836
  41        2PX         0.13110   0.00670  -0.00790   0.00913  -0.04504
  42        2PY        -0.14094   0.03591   0.03008  -0.03616   0.05125
  43        2PZ         0.13857   0.12510  -0.02739  -0.15939  -0.01856
  44        3S          0.08871   0.06430  -0.00803  -0.14299   0.00561
  45        3PX         0.09460   0.00197  -0.00600   0.01269  -0.00581
  46        3PY        -0.08249   0.01675   0.01545  -0.01219  -1.36522
  47        3PZ         0.06239   0.05909  -0.01714  -0.06417   0.07605
  48        4S          0.04035  -0.00286   0.00304  -0.02282   8.59514
  49        4PX         0.01620   0.00073  -0.00095   0.00326   0.07184
  50        4PY        -0.00579   0.00216   0.00274  -0.00130  -1.43256
  51        4PZ         0.00461   0.00153  -0.00232   0.00474  -0.24690
  52        5XX         0.00051  -0.00271   0.00052   0.00182   0.11178
  53        5YY        -0.00447   0.00090   0.00142  -0.00375   0.30679
  54        5ZZ         0.00684  -0.00027  -0.00182  -0.00009   0.17637
  55        5XY        -0.00118  -0.00027   0.00007   0.00059   0.02058
  56        5XZ        -0.00119   0.00012  -0.00013  -0.00001   0.01708
  57        5YZ         0.00006  -0.00543   0.00057   0.00843   0.15562
  58 4   H  1S         -0.03668  -0.08727   0.00234   0.17918  -0.10153
  59        2S         -0.07323  -0.02977  -0.00768   0.08689  -0.95375
  60 5   H  1S         -0.08733   0.02253   0.01640  -0.03154   0.19484
  61        2S         -0.05007   0.00390   0.00587   0.00488  -0.13038
  62 6   H  1S          0.10508   0.07106  -0.02428  -0.09684   0.05821
  63        2S          0.01448   0.01259  -0.00694  -0.00899  -1.61492
  64 7   C  1S          0.08822   0.11101  -0.22902   0.16603   0.05713
  65        2S         -0.04398   0.06372   0.04276  -0.07323   0.10258
  66        2PX         0.07820  -0.01368   0.01758   0.02893   0.03369
  67        2PY         0.21961   0.07490   0.03956   0.05875   0.13785
  68        2PZ        -0.05594  -0.14656  -0.08333   0.01848   0.01660
  69        3S         -0.07507   0.05601   0.03411  -0.08931  -1.16832
  70        3PX         0.03209  -0.00598   0.00763   0.01563  -0.06241
  71        3PY         0.02936  -0.00379   0.00886   0.01823  -1.03193
  72        3PZ         0.00047  -0.03550  -0.03878   0.00805   0.48700
  73        4S         -0.03905  -0.02227  -0.00078   0.00647  -5.63587
  74        4PX         0.00722   0.00252   0.00217   0.00019   0.04032
  75        4PY        -0.00998  -0.00566  -0.00231   0.00025  -2.82547
  76        4PZ         0.00228  -0.00629  -0.00250   0.00789  -0.09127
  77        5XX         0.00382  -0.00136  -0.00018   0.00249   0.08579
  78        5YY         0.00945   0.00568   0.00295   0.00066  -0.04789
  79        5ZZ        -0.01139  -0.00744   0.00179  -0.00240   0.28849
  80        5XY         0.00367   0.00180   0.00002  -0.00384  -0.05225
  81        5XZ         0.00089  -0.00107   0.00145   0.00256  -0.06145
  82        5YZ         0.00461   0.00823   0.00364  -0.00167   0.07600
  83 8   O  1S         -0.22307   0.55227   0.00140   0.31285   0.05031
  84        2S         -0.04507  -0.11908   0.02700   0.08228   0.09349
  85        2PX         0.06221  -0.01519   0.02899   0.06794  -0.00212
  86        2PY        -0.08499  -0.08572  -0.04829  -0.02911  -0.06452
  87        2PZ         0.16155   0.01561   0.04512   0.10204   0.05097
  88        3S          0.02577  -0.10812   0.05877   0.12434  -0.90695
  89        3PX         0.03294  -0.01060   0.01694   0.04218   0.04571
  90        3PY        -0.03433  -0.04153  -0.01999  -0.00867  -0.16711
  91        3PZ         0.06098  -0.00573   0.01692   0.04622  -0.09200
  92        4S          0.02461   0.00871   0.00959   0.01180  -0.50007
  93        4PX        -0.00186  -0.00221   0.00162   0.00683  -0.10100
  94        4PY        -0.00679  -0.00580  -0.00291   0.00045   0.23360
  95        4PZ         0.00639   0.00355   0.00593   0.00069   0.74623
  96        5XX         0.00410  -0.00219  -0.00037  -0.00246   0.14614
  97        5YY         0.00349  -0.00650  -0.00247  -0.00232   0.14298
  98        5ZZ        -0.00675  -0.00177  -0.00089  -0.00930   0.17951
  99        5XY         0.00336  -0.00035   0.00123   0.00239   0.03150
 100        5XZ        -0.00451   0.00078  -0.00155  -0.00349   0.00039
 101        5YZ         0.00542   0.00341   0.00154   0.00283   0.00086
 102 9   N  1S         -0.06067  -0.12014   0.91263  -0.05397   0.09805
 103        2S         -0.03314   0.01759   0.00999  -0.00995   0.27737
 104        2PX         0.08648   0.00406   0.00951  -0.03260   0.02355
 105        2PY        -0.22140  -0.10547  -0.08466  -0.01173  -0.05997
 106        2PZ        -0.07408  -0.05564  -0.00423  -0.02575   0.02617
 107        3S         -0.02346   0.01899  -0.02902  -0.00118  -1.27600
 108        3PX         0.06286   0.00507   0.00619  -0.02749  -0.02234
 109        3PY        -0.12195  -0.05255  -0.04116  -0.01070  -0.27421
 110        3PZ        -0.04513  -0.03067   0.00275  -0.01451  -0.32117
 111        4S          0.04444   0.01851   0.00128   0.00261   9.54995
 112        4PX         0.00738   0.00167  -0.00036  -0.00845  -0.17552
 113        4PY        -0.02124  -0.00514  -0.00344  -0.00464  -1.34721
 114        4PZ        -0.00743  -0.00320   0.00180  -0.00450  -0.41930
 115        5XX         0.00307   0.00030  -0.00635   0.00116   0.28802
 116        5YY        -0.00011   0.00202  -0.00581  -0.00121   0.22433
 117        5ZZ        -0.00757  -0.00217  -0.01068   0.00021   0.15248
 118        5XY        -0.00261   0.00034  -0.00048  -0.00100   0.00113
 119        5XZ        -0.00113  -0.00022  -0.00028   0.00012   0.02775
 120        5YZ        -0.00128   0.00210   0.00282  -0.00200  -0.02419
 121 10  H  1S         -0.04898   0.06591   0.05053  -0.04866   0.02609
 122        2S         -0.03677   0.02462   0.02220  -0.02055   0.04767
 123 11  H  1S         -0.04869  -0.00674  -0.03516   0.00787   0.21075
 124        2S         -0.02268  -0.01518  -0.01308   0.00267  -1.25143
 125 12  H  1S         -0.10316  -0.04404  -0.02625  -0.02115   0.20927
 126        2S         -0.03424  -0.01075  -0.00242  -0.00781  -0.55651
                          26        27        28        29        30
     Eigenvalues --     0.00000   0.00000   0.00000   0.00000   0.00000
   1 1   C  1S          0.01474   0.02374  -0.00129   0.01520   0.01686
   2        2S          0.18461  -0.11109   0.05837   0.34653  -0.32829
   3        2PX        -0.05702  -0.00133  -0.06641  -0.06978  -0.09729
   4        2PY        -0.36148   0.14734  -0.15630   0.00936  -0.19138
   5        2PZ         0.28453  -0.08798   0.20654   0.21501  -0.01875
   6        3S          0.06220  -0.96015   0.64946  -0.86554  -0.40022
   7        3PX        -0.13594  -0.08698  -0.17337   0.01338   0.01428
   8        3PY         0.77851   0.12194  -0.27697  -0.99651   1.21906
   9        3PZ        -2.17873  -0.31292  -1.27501   0.27382  -0.36713
  10        4S         -2.45503  -0.65728   2.05626  -1.53791   1.33363
  11        4PX        -0.18325   0.21404  -0.06507  -0.10618  -0.02919
  12        4PY         0.18487  -1.65642   0.57567  -1.00221  -0.49837
  13        4PZ        -1.26248  -0.53381   0.25470  -0.58164   0.37164
  14        5XX        -0.06569   0.16820  -0.06634   0.18819   0.24118
  15        5YY         0.00360  -0.02911  -0.04314   0.23909   0.06935
  16        5ZZ        -0.10989   0.13027  -0.20294   0.03995   0.00847
  17        5XY        -0.02155  -0.02716   0.03985  -0.04991  -0.04811
  18        5XZ        -0.02365   0.05881   0.15943   0.07910   0.11072
  19        5YZ        -0.04805  -0.06720  -0.12270   0.07566   0.01536
  20 2   O  1S          0.13178  -0.08901  -0.08625   0.04816  -0.09774
  21        2S          0.52903  -0.11280   0.24611  -0.10955  -0.54893
  22        2PX         0.07353  -0.01469   0.04745  -0.05606  -0.08706
  23        2PY         0.00793   0.05261   0.01993  -0.11657  -0.09304
  24        2PZ        -0.01765  -0.07638  -0.08999   0.09938   0.06961
  25        3S         -2.16929   1.42104   0.31284  -0.61853   2.43707
  26        3PX         0.01799  -0.03149   0.12813  -0.00877  -0.03147
  27        3PY        -0.15882   0.20440  -0.21693  -0.26444   0.28762
  28        3PZ         0.36520  -0.15616   0.28917  -0.01065  -0.02510
  29        4S          3.29589  -1.29829  -0.95105  -0.20616  -0.55147
  30        4PX         0.14052   0.16380  -0.06369   0.10665   0.21792
  31        4PY         0.73999   0.22814  -0.00106   0.23232   0.55277
  32        4PZ         0.49798   0.65183   0.10861   0.16133  -0.06141
  33        5XX         0.54102  -0.26570  -0.09447   0.07214  -0.44522
  34        5YY         0.27447  -0.27924  -0.45875   0.17825  -0.33547
  35        5ZZ         0.46782  -0.17530  -0.05801  -0.00531  -0.40775
  36        5XY         0.03734  -0.11254   0.00243   0.12694   0.01506
  37        5XZ        -0.06741  -0.02894   0.00089   0.09531   0.14012
  38        5YZ         0.21359   0.04420   0.25931   0.11679  -0.16854
  39 3   N  1S         -0.02166  -0.01317  -0.04583  -0.12057   0.10982
  40        2S          0.11447   0.17643  -0.06886   0.55515  -0.01085
  41        2PX         0.07065  -0.03687   0.11764  -0.09284  -0.16088
  42        2PY         0.11623   0.00950  -0.14378  -0.06183   0.02398
  43        2PZ        -0.03661   0.18867   0.02327   0.21548  -0.05782
  44        3S          0.26816   0.18378   1.20951   0.37342  -1.66907
  45        3PX         0.11974   0.09690  -0.19988   0.05699   0.08940
  46        3PY        -1.02926  -0.13070  -0.24237   0.95831  -0.41739
  47        3PZ         0.13457  -0.13461  -0.28886  -1.08220   0.19120
  48        4S          1.16218   2.60810  -1.23474   1.95575  -1.22901
  49        4PX        -0.35486  -0.27273   0.41055  -0.06922   0.00991
  50        4PY         0.15176   0.36537   0.03934   0.17901   0.33373
  51        4PZ         0.13385  -0.47036   0.44695  -0.81412  -0.36465
  52        5XX         0.03856  -0.17358  -0.14823  -0.34832   0.35934
  53        5YY        -0.16205   0.26124  -0.07239  -0.47040   0.37037
  54        5ZZ         0.00666  -0.11869  -0.16884  -0.52236   0.23268
  55        5XY         0.06036  -0.08100  -0.04391  -0.24373   0.03228
  56        5XZ         0.07120   0.03250  -0.00619   0.01678  -0.20517
  57        5YZ        -0.03998   0.32333   0.14822  -0.02569  -0.16874
  58 4   H  1S          0.03175   0.01640   0.24444   0.16511  -0.21369
  59        2S         -2.11968  -0.09141  -1.38710   0.23159  -0.57329
  60 5   H  1S          0.16275   0.24336   0.02595  -0.30494  -0.12695
  61        2S          0.43066  -0.82328  -0.08880  -0.72601   0.84576
  62 6   H  1S         -0.13777   0.04686   0.06646   0.30564  -0.14754
  63        2S          0.04143  -0.40540  -0.22536   1.16802   0.82863
  64 7   C  1S          0.02259  -0.01086  -0.03247  -0.08634  -0.00907
  65        2S         -0.10730   0.10325   0.40596   0.27714   0.40672
  66        2PX         0.02449  -0.02977   0.17997  -0.06272   0.00068
  67        2PY        -0.09921   0.04482   0.11039  -0.05273  -0.02849
  68        2PZ         0.03471  -0.06310   0.39065  -0.09080   0.10556
  69        3S          1.23637   1.01037   0.15109   0.08953  -1.50768
  70        3PX         0.16503   0.05115   0.01432   0.16430   0.05866
  71        3PY        -0.04085   0.12650   0.17530   1.08613  -0.70993
  72        3PZ         1.81191   1.36694  -0.66227  -0.54111  -0.74207
  73        4S          2.35940   0.60157  -2.27924   0.06713   0.98280
  74        4PX         0.32802   0.60051  -0.14341   0.12978  -0.05511
  75        4PY         0.82137   1.70427  -0.87881   0.48117   1.36789
  76        4PZ         1.06276  -0.53957  -0.01896  -0.34755  -0.15238
  77        5XX         0.07278  -0.06383  -0.34846  -0.00394   0.04105
  78        5YY         0.16794  -0.01565   0.01485  -0.04800  -0.08842
  79        5ZZ         0.14199   0.01677  -0.16581  -0.44319   0.07154
  80        5XY         0.03604   0.05670   0.01535   0.02472  -0.01664
  81        5XZ        -0.00707  -0.07802  -0.08213  -0.00955  -0.06036
  82        5YZ        -0.14577   0.00438   0.23043   0.24123  -0.00976
  83 8   O  1S         -0.13859   0.16422   0.01335  -0.00110   0.04555
  84        2S         -0.16753   0.36441   0.17710   0.13610   0.06816
  85        2PX        -0.04835   0.05393  -0.05291  -0.06651  -0.02141
  86        2PY        -0.00500   0.01026  -0.03505   0.04357  -0.23820
  87        2PZ        -0.01740   0.03799   0.04704   0.04252   0.11317
  88        3S          1.10989  -2.83871  -0.49299   0.12812  -0.30799
  89        3PX         0.20892   0.06652  -0.17677   0.12151  -0.11204
  90        3PY        -0.36185  -0.19758   0.01552   0.20761   0.61364
  91        3PZ         0.68651   0.19223   0.01974  -0.34823   0.05339
  92        4S         -4.21439   0.84188   1.98302   1.54833   1.02818
  93        4PX        -0.40526  -0.22798   0.18517  -0.31432   0.16354
  94        4PY        -1.38728  -1.05474   0.72360  -0.18947  -0.33665
  95        4PZ         0.05274  -0.02090  -0.25171  -0.32536  -0.38958
  96        5XX        -0.41812   0.64066   0.00425  -0.05021   0.26597
  97        5YY        -0.57513   0.35014  -0.02374  -0.10076   0.06782
  98        5ZZ        -0.49507   0.49117   0.00078   0.07804   0.15796
  99        5XY        -0.07585   0.08282   0.07559   0.01066   0.16100
 100        5XZ        -0.06162   0.05883   0.03837   0.11433   0.02722
 101        5YZ         0.12069   0.19552   0.10778  -0.15266  -0.07713
 102 9   N  1S          0.06272   0.01545   0.03453  -0.06894  -0.05328
 103        2S          0.06724  -0.01091   0.08924   0.39568  -0.07865
 104        2PX        -0.06255  -0.05487   0.00337   0.08379  -0.04939
 105        2PY         0.01153   0.12666   0.00741   0.17447   0.03918
 106        2PZ         0.02118  -0.02988   0.20330  -0.10982   0.09262
 107        3S         -1.04939  -0.42674  -0.80643  -0.52769   1.36040
 108        3PX         0.17776   0.14541  -0.28959  -0.13448   0.03686
 109        3PY         0.26691   0.16440   0.46749   0.20877  -0.54596
 110        3PZ        -0.27061  -0.03620  -0.24646   0.27769   0.27448
 111        4S         -0.64590  -2.27313   1.32042  -1.07802  -2.25708
 112        4PX        -0.45567  -0.32748   0.37553  -0.02648  -0.07717
 113        4PY        -0.94909  -0.29132  -0.06671   0.12065  -0.12160
 114        4PZ         0.23066   1.21031  -1.05952   0.41618   0.11481
 115        5XX         0.18549   0.14855   0.12711  -0.31719  -0.02471
 116        5YY         0.20162   0.13252   0.08050  -0.21749   0.00043
 117        5ZZ         0.19655  -0.12778   0.04888  -0.20701  -0.28550
 118        5XY        -0.11308   0.03317   0.07986   0.08704  -0.03561
 119        5XZ         0.13175  -0.26158   0.00051   0.07635  -0.05211
 120        5YZ         0.07671   0.06534  -0.06614   0.10707   0.03309
 121 10  H  1S         -0.08166  -0.13855   0.00115  -0.01321  -0.10798
 122        2S          1.27456   1.13140  -0.44492  -0.31138  -0.33286
 123 11  H  1S         -0.19304  -0.27665   0.22986   0.12710  -0.08872
 124        2S          0.60357   1.38824  -0.88172   0.27942   0.63662
 125 12  H  1S          0.05630   0.11924  -0.30551  -0.06272  -0.03886
 126        2S          0.08582  -0.44600   0.98451  -0.02402   0.04611
                          31        32        33        34        35
     Eigenvalues --     0.00000   0.00000   0.00000   0.00000   0.00000
   1 1   C  1S          0.03326  -0.03743  -0.07018  -0.05690   0.07861
   2        2S          0.14304   1.00239  -0.35860  -0.25106  -0.30604
   3        2PX         0.03676  -0.09490   0.03523   0.06458   0.00502
   4        2PY        -0.00614  -0.23887   0.19994   0.07408  -0.23673
   5        2PZ         0.17163  -0.16158  -0.09550  -0.10986   0.02330
   6        3S          0.57916  -1.21720  -1.02102  -0.24358  -0.93960
   7        3PX        -0.02101   0.00752  -0.06119  -0.25268  -0.18835
   8        3PY        -0.17722  -0.55344   1.28365   1.05144  -0.06391
   9        3PZ         0.81744   0.77234  -0.99735  -1.26138  -0.44414
  10        4S          0.33873  -0.90748   0.39177   1.06698   0.71526
  11        4PX         0.20520  -0.03372   0.30544   0.20648   0.44237
  12        4PY        -0.76256  -1.20106   0.57491   0.95899   0.00930
  13        4PZ        -0.54190   0.13547   0.20020  -0.04993   0.09590
  14        5XX        -0.19958  -0.33256  -0.02696  -0.17589   0.42759
  15        5YY         0.27288  -0.42039  -0.08667  -0.34661   0.17219
  16        5ZZ         0.22031  -0.35137  -0.11405  -0.17120   0.35170
  17        5XY         0.08431   0.00781   0.14184   0.17021   0.05125
  18        5XZ        -0.03634  -0.09345   0.03606  -0.02327   0.07629
  19        5YZ         0.21808  -0.24624   0.23051   0.10772  -0.25287
  20 2   O  1S         -0.04337  -0.06308  -0.07819  -0.11512  -0.08321
  21        2S         -0.04148   0.14256  -0.63274  -0.12422   0.08544
  22        2PX        -0.01715  -0.01108  -0.01715   0.01207  -0.19974
  23        2PY         0.03534   0.11562  -0.26875  -0.04378  -0.06542
  24        2PZ         0.17040   0.04469  -0.25832   0.01151   0.19753
  25        3S          0.24732   0.09492   2.67476   2.14209   0.75603
  26        3PX         0.17783   0.03259   0.20580   0.30509   0.40262
  27        3PY        -0.38815  -0.35867   1.30238   1.01630   0.02200
  28        3PZ        -0.58058  -0.21018   0.57024   0.29119  -0.26892
  29        4S         -0.84181   0.08270   0.61394  -1.13983  -0.18229
  30        4PX        -0.28074   0.10772  -0.35004  -0.41630  -0.37151
  31        4PY         0.23910   0.70231   0.04401  -0.97633   0.05485
  32        4PZ         0.82113  -0.05474  -0.39409  -0.66601   0.46255
  33        5XX        -0.08798  -0.23107  -0.27836  -0.37931  -0.28752
  34        5YY        -0.44121  -0.32637  -0.01297  -0.07331  -0.29972
  35        5ZZ         0.01951  -0.12527  -0.33481  -0.31160  -0.18743
  36        5XY         0.07111   0.04135   0.05077   0.05223   0.06016
  37        5XZ         0.04893  -0.07888  -0.01476   0.00936  -0.12415
  38        5YZ         0.02947  -0.06926   0.11509  -0.04297  -0.17665
  39 3   N  1S         -0.07482   0.12252  -0.02892  -0.10793   0.06189
  40        2S          0.79381  -0.02436   0.19199   0.15027  -0.35165
  41        2PX        -0.05399  -0.09979  -0.05578   0.04972  -0.07442
  42        2PY        -0.04296  -0.22422   0.15871   0.10812  -0.16293
  43        2PZ         0.05829   0.01998   0.23698  -0.16618   0.06255
  44        3S         -1.27984  -1.26462   0.26178   0.97174   0.42286
  45        3PX         0.15977   0.20639   0.01944  -0.07407   0.08096
  46        3PY         0.62559   0.12679  -0.55725  -0.99875   0.17371
  47        3PZ        -0.24527  -0.88783  -0.46054   0.30609  -0.39318
  48        4S         -0.03088   1.50268  -0.60697  -0.26193  -0.88013
  49        4PX        -0.24742  -0.31934  -0.04710   0.15312  -0.16548
  50        4PY         0.50594   0.83916   0.29496  -1.76024   0.48894
  51        4PZ        -0.18543  -0.34412   0.67509   0.63758  -0.44990
  52        5XX        -0.19072   0.41301   0.18570  -0.37585   0.21259
  53        5YY        -0.35076   0.34236  -0.07760  -0.09891   0.22057
  54        5ZZ        -0.48080   0.45100  -0.38180  -0.32614   0.46729
  55        5XY         0.15270  -0.01401  -0.06992   0.12906  -0.06980
  56        5XZ        -0.03820  -0.16802   0.05433  -0.02965   0.04336
  57        5YZ        -0.05297   0.23491   0.08710   0.06777   0.17791
  58 4   H  1S          0.25735   0.11371  -0.09615   0.22263  -0.27072
  59        2S          0.18348   0.93188  -0.65919  -1.44580   0.06391
  60 5   H  1S          0.09214   0.13241   0.24132  -0.19345   0.05250
  61        2S         -0.13449  -0.44255  -0.39846   1.43099  -0.72552
  62 6   H  1S         -0.03073   0.19774   0.29973   0.22220  -0.33314
  63        2S          1.22342   0.53316  -0.11868  -1.19057   1.00350
  64 7   C  1S          0.03493  -0.17944   0.00733  -0.02270  -0.01423
  65        2S         -0.25469   0.40609  -0.21120  -0.61373  -0.02971
  66        2PX         0.12727  -0.02953   0.02979  -0.06415  -0.08535
  67        2PY         0.11999  -0.16890  -0.04310  -0.12535  -0.43790
  68        2PZ        -0.14284   0.06409  -0.15208   0.11480   0.09159
  69        3S         -0.46779   2.73240  -1.49785   1.15737  -0.72025
  70        3PX        -0.16974   0.06716  -0.33346   0.00621  -0.05459
  71        3PY        -0.93939   0.03526   0.10754  -0.34062   0.49847
  72        3PZ         0.40058   0.35843  -1.41311  -0.49829   0.07113
  73        4S          0.73129   1.61110   0.28399   0.45023   0.33372
  74        4PX        -0.06790   0.30243   0.16665   0.14634   0.06131
  75        4PY         0.24659   0.84201   0.30149  -0.37908  -0.52406
  76        4PZ         0.17465  -0.22141  -0.04339  -0.58934   0.71993
  77        5XX         0.00534  -0.62209   0.03225   0.07647  -0.11376
  78        5YY         0.04912  -0.69263  -0.33909  -0.07358  -0.35748
  79        5ZZ         0.03729  -0.46311  -0.11743  -0.00829  -0.00936
  80        5XY        -0.04244  -0.15651   0.10917  -0.01636   0.00232
  81        5XZ        -0.16977   0.07694  -0.10014   0.09350  -0.04909
  82        5YZ        -0.00022   0.10408   0.05810   0.16288   0.04842
  83 8   O  1S         -0.02528  -0.00940  -0.02009  -0.10401  -0.11516
  84        2S         -0.05673   0.13155  -0.20061   0.12230  -0.31539
  85        2PX         0.04146   0.00626  -0.06154  -0.03494  -0.01254
  86        2PY         0.06813  -0.05003   0.18156  -0.02117   0.01010
  87        2PZ        -0.08085  -0.11902  -0.12369  -0.09064   0.00174
  88        3S          0.24480  -0.42394   1.27984   0.92416   2.00383
  89        3PX        -0.02462   0.07447   0.24023   0.07450   0.06535
  90        3PY        -0.01797  -0.12061   0.43698   0.14498  -0.04261
  91        3PZ         0.08723   0.35139  -0.40379   0.13073  -0.12134
  92        4S         -1.25410  -1.29869   1.25847  -1.29315  -1.55091
  93        4PX         0.15442  -0.22068  -0.20438  -0.15520   0.05546
  94        4PY        -0.22773  -0.75219   0.16100  -0.33969  -0.12233
  95        4PZ         0.10659   0.42943  -0.53958   0.55501  -0.23478
  96        5XX        -0.11411  -0.02783  -0.04689  -0.26494  -0.34092
  97        5YY        -0.08584  -0.05315   0.02399  -0.31323  -0.50735
  98        5ZZ         0.04394  -0.03339   0.06439  -0.27419  -0.26676
  99        5XY         0.00340  -0.01465  -0.05050   0.04261  -0.13134
 100        5XZ         0.05072  -0.11227  -0.04704   0.01606  -0.04085
 101        5YZ        -0.16126  -0.02661  -0.13427  -0.04558   0.06842
 102 9   N  1S         -0.12291  -0.04767  -0.03132  -0.13172  -0.08194
 103        2S          0.08554   0.13828  -0.23846   0.27233  -0.47848
 104        2PX        -0.04636   0.10975  -0.01382   0.03526  -0.02326
 105        2PY        -0.12953  -0.05754  -0.06700   0.06197  -0.16303
 106        2PZ         0.02052   0.07962  -0.15484  -0.00598  -0.01004
 107        3S          1.44654   0.24820   1.23646   0.94787   1.71505
 108        3PX         0.16326   0.06836   0.10752  -0.12330   0.03831
 109        3PY        -0.50532   0.14906  -0.63545  -0.48855  -0.11956
 110        3PZ        -0.00646   0.02799   1.03086   0.08802   0.07193
 111        4S         -0.14441  -1.17608  -0.76495  -0.01341   0.37260
 112        4PX        -0.13513  -0.31222   0.04524   0.24462   0.09249
 113        4PY        -0.38497   0.41773   0.66528   0.22907  -0.08962
 114        4PZ         0.20144   0.80118  -0.02720   0.85162  -0.25367
 115        5XX        -0.39097  -0.00143  -0.04008  -0.34883  -0.47102
 116        5YY        -0.39645  -0.08616   0.27153  -0.30543   0.14881
 117        5ZZ        -0.38752  -0.15930  -0.26194  -0.45289  -0.21545
 118        5XY        -0.05266   0.13139  -0.08011   0.00807   0.00807
 119        5XZ         0.15871   0.14074   0.15669  -0.35023  -0.12543
 120        5YZ        -0.01628  -0.11144   0.15935   0.14983   0.05670
 121 10  H  1S          0.35842  -0.11080   0.07640  -0.17064   0.19142
 122        2S         -0.28542   0.03550  -0.58276  -0.46313   0.29219
 123 11  H  1S         -0.17245   0.23650   0.34779  -0.02429  -0.10487
 124        2S          0.61324  -0.20040   0.02309   0.41661  -0.31895
 125 12  H  1S         -0.02425   0.19764  -0.00102   0.12878  -0.11936
 126        2S         -0.04286  -0.97430  -0.84538  -0.39000  -0.37665
                          36        37        38        39        40
     Eigenvalues --     0.00000   0.00000   0.00000   0.00000   0.00000
   1 1   C  1S          0.15648  -0.04664  -0.11479   0.01203   0.06650
   2        2S         -0.20700   0.16906   0.67942   0.26980   0.20041
   3        2PX        -0.03319   0.10523  -0.06404   0.08173   0.04559
   4        2PY         0.16011  -0.30253   0.31700  -0.08059  -0.19650
   5        2PZ         0.07426   0.02349   0.03179   0.12707   0.05742
   6        3S         -4.05427   1.99030  -0.06406  -0.26734  -1.06640
   7        3PX        -0.16742  -0.07689   0.39714   0.11605  -0.07508
   8        3PY        -0.96448  -1.42999   1.33348   0.16861  -0.30600
   9        3PZ        -1.76307   0.03425  -0.36119   0.12467  -0.18832
  10        4S         -3.12504   0.92515  -0.36107  -0.48339  -0.36773
  11        4PX        -0.24533   0.49323  -0.30740   0.01867   0.10771
[...]
 -------------------------------------------------------------------
 Cartesian Forces:  Max     0.002794952 RMS     0.001056727

 GradGradGradGradGradGradGradGradGradGradGradGradGradGradGradGradGradGrad
 Berny optimization.
 Search for a local minimum.
 Step number   1 out of a maximum of    2
 All quantities printed in internal units (Hartrees-Bohrs-Radians)
 Second derivative matrix not updated -- analytic derivatives used.
 ITU=  0
     Eigenvalues ---   -0.00032  -0.00019  -0.00016  -0.00005  -0.00003
     Eigenvalues ---    0.00025   0.00479   0.00793   0.02113   0.02317
     Eigenvalues ---    0.03293   0.03448   0.08860   0.09093   0.15113
     Eigenvalues ---    0.16159   0.19992   0.20258   0.24555   0.24843
     Eigenvalues ---    0.36790   0.37003   0.67470   0.68212   1.16369
     Eigenvalues ---    1.20054   1.22626   1.26581   1.72430   1.73390
 Eigenvalue     1 is  -3.25D-04 should be greater than     0.000000 Eigenvector:
                          Z6        Z10       Z12       Z4        Z8
   1                    0.45740  -0.38582   0.31687  -0.30510  -0.24204
                          X6        Z7        Y2        Y5        Y8
   1                    0.21991  -0.18893   0.18263  -0.17500  -0.15014
 Eigenvalue     2 is  -1.88D-04 should be greater than     0.000000 Eigenvector:
                          Z2        Z11       Z5        X4        X10
   1                    0.39742  -0.34759  -0.28292  -0.24355   0.22491
                          Z9        Y5        Z4        X11       Y11
   1                   -0.21967  -0.21190   0.19849   0.19814   0.19355
 Eigenvalue     3 is  -1.59D-04 should be greater than     0.000000 Eigenvector:
                          Z6        Z12       Z4        Z10       Z11
   1                    0.46630  -0.46366  -0.43107   0.35580  -0.26558
                          Z9        Z8        Z3        Z7        Z1
   1                   -0.22939   0.18430   0.16389   0.12467  -0.11695
 Eigenvalue     4 is  -4.64D-05 should be greater than     0.000000 Eigenvector:
                          Z5        Z4        Z12       Z8        Z3
   1                    0.49968   0.48766  -0.35738  -0.35672   0.30363
                          Z1        Z9        Z7        X6        Y5
   1                    0.24089  -0.18622  -0.17715   0.06468  -0.06319
 Eigenvalue     5 is  -3.28D-05 should be greater than     0.000000 Eigenvector:
                          Z10       Z11       Y5        Z2        Z6
   1                    0.49391   0.38303  -0.24381  -0.24048  -0.23423
                          Z9        X6        Y11       Y12       Z7
   1                    0.21733   0.21571   0.20259   0.19481   0.19273
 Quadratic step=3.069D+00 exceeds max=3.000D-01 adjusted using Lamda=-1.581D-03.
 Angle between NR and scaled steps=  38.89 degrees.
 Angle between quadratic step and forces=  82.52 degrees.
 Linear search not attempted -- first point.
 B after Tr=     0.002496    0.014379   -0.000429
         Rot=    0.999999   -0.001345    0.000780   -0.000072 Ang=  -0.18 deg.
 Variable       Old X    -DE/DX   Delta X   Delta X   Delta X     New X
                                 (Linear)    (Quad)   (Total)
    X1        0.86549   0.00184   0.00000  -0.02160  -0.01920   0.84629
    Y1        0.90518  -0.00031   0.00000   0.02085   0.03541   0.94059
    Z1       -0.00000   0.00021   0.00000  -0.02303  -0.01965  -0.01965
    X2        3.13128  -0.00055   0.00000  -0.01250  -0.01004   3.12123
    Y2        0.53857   0.00085   0.00000   0.08275   0.09766   0.63623
    Z2        0.00000  -0.00029   0.00000  -0.03637  -0.03025  -0.03025
    X3       -0.90896  -0.00273   0.00000   0.02121   0.02382  -0.88513
    Y3       -0.94675   0.00126   0.00000  -0.02282  -0.00860  -0.95536
    Z3        0.00000   0.00000   0.00000   0.01602   0.01159   0.01159
    X4        0.03968  -0.00021   0.00000  -0.07199  -0.06984  -0.03015
    Y4        2.82325   0.00012   0.00000  -0.00015   0.01433   2.83758
    Z4        0.00000  -0.00000   0.00000  -0.04408  -0.03697  -0.03697
    X5       -2.77223   0.00100   0.00000   0.01368   0.01624  -2.75599
    Y5       -0.54424  -0.00036   0.00000  -0.06779  -0.05385  -0.59809
    Z5       -0.00000  -0.00021   0.00000   0.01857   0.01219   0.01219
    X6       -0.35905   0.00068   0.00000   0.06733   0.07015  -0.28890
    Y6       -2.77223  -0.00141   0.00000  -0.01214   0.00205  -2.77018
    Z6       -0.00000   0.00027   0.00000   0.05736   0.04898   0.04898
    X7        1.25289   0.00256   0.00000   0.01348   0.00124   1.25413
    Y7        0.02835  -0.00010   0.00000  -0.03378  -0.04463  -0.01628
    Z7        9.44863  -0.00028   0.00000  -0.00636  -0.00488   9.44375
    X8        2.59459  -0.00034   0.00000  -0.03861  -0.05076   2.54384
    Y8       -1.83303  -0.00010   0.00000  -0.07076  -0.08174  -1.91477
    Z8        9.44863   0.00037   0.00000   0.10918   0.10757   9.55620
    X9       -1.31147  -0.00279   0.00000   0.00716  -0.00497  -1.31644
    Y9       -0.02646   0.00226   0.00000   0.03303   0.02200  -0.00446
    Z9        9.44863  -0.00048   0.00000  -0.07428  -0.07677   9.37186
   X10        2.02390   0.00001   0.00000   0.06418   0.05179   2.07568
   Y10        1.96909  -0.00028   0.00000  -0.05497  -0.06550   1.90359
   Z10        9.44863  -0.00008   0.00000  -0.08638  -0.07845   9.37018
   X11       -2.34515   0.00075   0.00000   0.04627   0.03382  -2.31133
   Y11        1.57603  -0.00107   0.00000   0.05486   0.04354   1.61957
   Z11        9.44863   0.00026   0.00000  -0.02063  -0.02030   9.42833
   X12       -2.21476  -0.00022   0.00000  -0.03010  -0.04225  -2.25701
   Y12       -1.70642  -0.00086   0.00000   0.05096   0.03934  -1.66708
   Z12        9.44863   0.00024   0.00000   0.09538   0.08694   9.53557
         Item               Value     Threshold  Converged?
 Maximum Force            0.002795     0.000450     NO 
 RMS     Force            0.001057     0.000300     NO 
 Maximum Displacement     0.107567     0.001800     NO 
 RMS     Displacement     0.049199     0.001200     NO 
 Predicted change in Energy=-2.085912D-04
 GradGradGradGradGradGradGradGradGradGradGradGradGradGradGradGradGradGrad


 ----------------------------------------------------------------------

 Electric dipole moment (input orientation):
 (Debye = 10**-18 statcoulomb cm , SI units = C m)
                  (au)            (Debye)         (10**-30 SI)
   Tot        0.297887D+01      0.757152D+01      0.252559D+02
   x         -0.289065D+01     -0.734730D+01     -0.245080D+02
   y          0.719562D+00      0.182895D+01      0.610070D+01
   z         -0.967655D-03     -0.245953D-02     -0.820412D-02

 Dipole polarizability, Alpha (input orientation).
 (esu units = cm**3 , SI units = C**2 m**2 J**-1)
 Alpha(0;0):
               (au)            (10**-24 esu)      (10**-40 SI)
   iso        0.477187D+02      0.707119D+01      0.786775D+01
   aniso      0.237277D+02      0.351608D+01      0.391217D+01
   xx         0.605072D+02      0.896624D+01      0.997628D+01
   yx        -0.185660D+01     -0.275120D+00     -0.306113D+00
   yy         0.491703D+02      0.728629D+01      0.810709D+01
   zx         0.106820D-01      0.158292D-02      0.176123D-02
   zy        -0.759401D-01     -0.112532D-01     -0.125208D-01
   zz         0.334787D+02      0.496103D+01      0.551989D+01

 ----------------------------------------------------------------------

 Dipole orientation:
     6          0.26248152          1.05528531         -0.62121325
     8          0.30803358          1.24135450         -2.90845399
     7         -0.27475251         -1.10462400          0.65334741
     1          0.66429602          2.66776782          0.64346386
     1         -0.28852253         -1.16250362          2.55866915
     1         -0.67086924         -2.69460735         -0.32123270
     6          9.24819528         -1.96190538         -1.21200862
     8          8.88961811         -3.40003858         -2.96360944
     7          9.08650133         -2.61479653          1.26317323
     1          9.74801173          0.04635043         -1.49138556
     1          9.40225252         -1.34821928          2.65333329
     1          8.64015476         -4.40850859          1.73390724

 Electric dipole moment (dipole orientation):
 (Debye = 10**-18 statcoulomb cm , SI units = C m)
                  (au)            (Debye)         (10**-30 SI)
   Tot        0.297887D+01      0.757152D+01      0.252559D+02
   x          0.000000D+00      0.000000D+00      0.000000D+00
   y          0.000000D+00      0.000000D+00      0.000000D+00
   z          0.297887D+01      0.757152D+01      0.252559D+02

 Dipole polarizability, Alpha (dipole orientation).
 (esu units = cm**3 , SI units = C**2 m**2 J**-1)
 Alpha(0;0):
               (au)            (10**-24 esu)      (10**-40 SI)
   iso        0.477187D+02      0.707119D+01      0.786775D+01
   aniso      0.237277D+02      0.351608D+01      0.391217D+01
   xx         0.343486D+02      0.508993D+01      0.566332D+01
   yx         0.356610D+01      0.528442D+00      0.587971D+00
   yy         0.480915D+02      0.712643D+01      0.792922D+01
   zx        -0.265036D+00     -0.392743D-01     -0.436985D-01
   zy        -0.982488D+00     -0.145590D+00     -0.161990D+00
   zz         0.607161D+02      0.899719D+01      0.100107D+02

 ----------------------------------------------------------------------
 1\1\GINC-DEATHSTAR\Freq\RwB97XD\6-31+G(d)\C2H6N2O2\MMCCULL\08-May-2019
 \0\\# wb97xd/6-31+g* Pop=NaturalOrbital freq\\Formamide dimer frequenc
 y calculation\\0,1\C,0.458,0.479,0.\O,1.657,0.285,0.\N,-0.481,-0.501,0
 .\H,0.021,1.494,0.\H,-1.467,-0.288,0.\H,-0.19,-1.467,0.\C,0.663,0.015,
 5.\O,1.373,-0.97,5.\N,-0.694,-0.014,5.\H,1.071,1.042,5.\H,-1.241,0.834
 ,5.\H,-1.172,-0.903,5.\\Version=EM64M-G16RevA.03\State=1-A\HF=-339.687
 9975\RMSD=8.881e-09\RMSF=1.057e-03\ZeroPoint=0.092255\Thermal=0.097769
 8\Dipole=-2.8906516,0.7195625,-0.0009677\DipoleDeriv=1.9351914,0.37940
 17,-0.0054798,0.3746222,1.0984025,-0.0073155,0.0001308,-0.003593,0.277
 8258,-1.3996172,-0.1605643,0.0055799,0.1473845,-0.5506404,0.000265,0.0
 130139,0.0002924,-0.4259465,-0.8157516,-0.3530631,0.004939,-0.6639587,
 -0.7247619,0.0020241,-0.0113156,-0.0052336,-0.7057697,-0.0463102,0.132
 4793,-0.0001402,0.122185,-0.1752378,-0.0019763,0.0002226,-0.0028422,0.
 1009738,0.1760641,0.0002593,0.0033413,0.0165052,0.1564874,0.0004984,0.
 0111809,-0.0012215,0.3877296,0.1491667,-0.0007579,0.0006006,-0.0001084
 ,0.1980627,0.0028065,0.0018459,0.0069389,0.363776,1.8812671,-0.4357601
 ,0.010252,-0.4264057,1.1364164,-0.0031703,-0.0000605,-0.0016718,0.2806
 016,-0.9699176,0.271932,-0.006233,0.5812487,-0.982112,0.0058047,-0.011
 6793,0.0074671,-0.4246939,-1.2716117,0.2170979,-0.0078577,-0.1038219,-
 0.2583792,0.0007079,0.015194,0.002551,-0.7094625,0.0208012,-0.053634,0
 .0003643,-0.0625605,-0.2250473,0.0005105,0.0003741,-0.0004186,0.104383
 ,0.1728271,-0.017811,-0.002962,-0.0017172,0.1599989,0.0020558,-0.00906
 2,0.0042949,0.3865711,0.1678907,0.0204203,-0.0024043,0.0166268,0.16681
 06,-0.0022107,-0.0098449,-0.0065636,0.3640116\Polar=60.5071532,-1.8566
 041,49.1703452,0.010682,-0.0759401,33.4786741\Quadrupole=-0.020888,2.2
 949321,-2.2740441,1.1610933,1.4835785,5.8665533\PG=C01 [X(C2H6N2O2)]\N
 Imag=5\\1.03347444,-0.07268223,0.70377592,-0.00026277,0.00034506,0.188
 05442,-0.72512321,0.12942778,0.00021224,0.84559579,0.12143374,-0.13981
 535,-0.00017812,-0.11360146,0.10479206,-0.00003376,-0.00021528,-0.0734
 3657,-0.00003260,-0.00007414,0.03237983,-0.22972829,-0.11880874,-0.000
 01689,-0.08721977,-0.04573863,0.00005852,0.87269106,-0.09873702,-0.300
 30816,0.00004051,-0.03334677,0.03184816,0.00009365,-0.03917947,0.83682
 145,0.00008855,-0.00009847,-0.04385564,-0.00005003,0.00008601,0.018776
 44,0.00012572,-0.00013448,0.01657756,-0.08501589,0.07488026,-0.0000219
 6,-0.03082248,0.03837778,0.00006993,0.01176714,-0.02405705,0.00000123,
 0.10624040,0.06451841,-0.25833855,-0.00001104,0.02013219,0.00341329,0.
 00002726,0.00627542,-0.02983535,0.00002306,-0.08648820,0.28789658,-0.0
 0012200,0.00020915,-0.06186012,0.00009135,-0.00002404,0.01964197,0.000
 03202,-0.00007855,0.01128267,0.00001474,-0.00011045,0.02589016,-0.0141
 3231,0.01297015,0.00002017,-0.00097190,-0.00542068,0.00000140,-0.45513
 914,0.08562371,-0.00000237,0.00057131,-0.00071350,-0.00001046,0.469285
 18,-0.02508509,0.01832794,-0.00003195,-0.00428659,-0.00479915,0.000008
 18,0.08608334,-0.09997669,-0.00001736,0.00074587,-0.00127056,0.0000075
 8,-0.08830977,0.08410746,0.00010923,0.00004945,-0.01022839,-0.00004663
 ,0.00001686,0.00823682,-0.00010766,-0.00003689,0.00224398,0.00000510,-
 0.00000314,-0.00135087,-0.00005887,0.00003749,0.00627214,0.02065108,-0
 .02566519,0.00001560,-0.00154034,0.00494761,0.00000909,-0.11244349,0.1
 0959185,0.00003878,-0.00274641,-0.00373266,-0.00002153,0.00034657,0.03
 086422,0.00000736,0.09574696,0.01077074,-0.02366300,-0.00004134,0.0015
 4090,0.00458288,0.00001639,0.11129077,-0.43859277,0.00003573,-0.003470
 12,-0.00186942,0.00001097,-0.00413278,0.00360837,-0.00002033,-0.116007
 22,0.45597665,-0.00002283,-0.00005635,0.00118069,0.00002374,-0.0000183
 7,-0.00554006,-0.00000382,0.00009916,-0.00505073,-0.00001786,0.0000003
 2,0.00639977,0.00000784,-0.00000467,-0.00515541,-0.00011537,-0.0000003
 3,0.00808512,0.00451749,0.00057509,-0.00003411,-0.00294711,0.00062686,
 -0.00076787,-0.00183433,-0.00122083,0.00123593,-0.00015812,0.00035790,
 -0.00000430,0.00008415,-0.00004421,-0.00095286,0.00032100,-0.00015873,
 -0.00008178,0.79455320,-0.00046330,0.00129440,-0.00001392,0.00041497,-
 0.00085783,0.00016539,0.00007102,-0.00056075,0.00019205,0.00023161,-0.
 00031830,0.00003822,-0.00004975,0.00008523,0.00014686,-0.00016977,0.00
 010444,-0.00038763,-0.16514281,0.94596774,-0.00006238,0.00022351,-0.00
 027025,0.00002692,-0.00007688,0.00027717,0.00001659,-0.00006468,0.0005
 2096,0.00001399,0.00000823,-0.00004348,-0.00008925,-0.00000180,-0.0001
 2916,-0.00002006,-0.00008945,-0.00021750,0.00036839,-0.00003934,0.1877
 8945,-0.00208015,-0.00015680,0.00000667,0.00138427,-0.00034718,0.00035
 181,0.00083107,0.00053253,-0.00048745,0.00009888,-0.00017524,0.0000095
 9,-0.00004158,0.00002246,0.00039042,-0.00015587,0.00005043,0.00005506,
 -0.30697469,0.29802998,-0.00008119,0.36189848,0.00087169,-0.00078701,-
 0.00004100,-0.00065145,0.00066054,-0.00015624,-0.00026509,0.00024078,0
 .00011717,-0.00016728,0.00027215,-0.00003278,0.00004219,-0.00007853,-0
 .00027330,0.00015402,-0.00014270,0.00024534,0.28845977,-0.56023461,0.0
 0001116,-0.37128316,0.59009245,0.00048442,-0.00032384,0.00025947,-0.00
 029893,0.00025311,-0.00037589,-0.00015692,0.00003299,-0.00038050,-0.00
 006230,0.00007178,0.00004461,0.00007764,-0.00000743,0.00007416,0.00008
 084,0.00004769,0.00028983,0.00022173,-0.00041315,-0.07314911,-0.000218
 43,0.00019609,0.03212848,-0.00277634,-0.00048383,-0.00001847,0.0018217
 5,-0.00033223,0.00045355,0.00116055,0.00081884,-0.00073914,0.00007270,
 -0.00019828,-0.00000450,-0.00009000,0.00001231,0.00063919,-0.00020124,
 0.00010492,0.00002985,-0.37313040,-0.04535225,-0.00014776,-0.06734273,
 0.05376984,-0.00013873,0.81515676,-0.00039993,-0.00046376,-0.00003958,
 0.00022704,0.00016167,0.00006465,0.00021464,0.00033460,-0.00017096,-0.
 00004528,0.00006332,-0.00001871,-0.00000586,-0.00003665,0.00006707,-0.
 00000522,-0.00001470,0.00012062,-0.02493940,-0.15601734,-0.00006397,0.
 06566992,0.01194523,0.00009958,-0.01890806,0.89037048,-0.00144217,-0.0
 0061590,0.00047827,0.00089761,-0.00005003,-0.00018271,0.00063770,0.000
 51896,-0.00131888,0.00001164,-0.00011508,0.00007996,0.00015340,0.00002
 554,0.00071225,-0.00005613,0.00019624,0.00040956,0.00012219,0.00002536
 ,-0.04361709,-0.00008883,0.00004625,0.01879269,-0.00012997,-0.00001220
 ,0.01614836,0.00000564,-0.00011094,-0.00004143,-0.00002321,0.00004180,
 0.00001909,0.00001858,0.00006294,0.00000675,-0.00001596,0.00002872,-0.
 00001105,-0.00001200,-0.00001814,0.00000623,-0.00000607,-0.00000625,0.
 00000391,-0.10189462,-0.08207691,-0.00008066,0.01537074,0.02657397,0.0
 0003899,-0.01794635,-0.03574561,-0.00001674,0.11078336,-0.00032914,-0.
 00031427,-0.00005235,0.00018486,0.00012416,0.00008581,0.00015768,0.000
 23720,-0.00007653,-0.00003160,0.00004377,-0.00001507,-0.00000814,-0.00
 002054,0.00002647,0.00000419,-0.00003072,0.00007008,-0.09199027,-0.243
 02395,0.00002748,0.00773596,-0.04245109,0.00006100,-0.00546199,0.00009
 630,-0.00000804,0.09097482,0.28436019,-0.00010004,-0.00002360,-0.00002
 892,0.00005857,0.00001047,0.00008375,0.00003492,0.00003343,0.00006846,
 -0.00000444,0.00000668,-0.00001169,-0.00001351,-0.00000073,-0.00002658
 ,-0.00000321,-0.00001262,-0.00003725,-0.00004530,0.00028830,-0.0621934
 5,0.00004304,-0.00009563,0.01970092,-0.00002949,-0.00006730,0.01137721
 ,0.00008965,-0.00011495,0.02604392,0.00012296,0.00005412,0.00006861,-0
 .00008805,-0.00001490,-0.00006689,-0.00004824,-0.00005049,-0.00009580,
 0.00001292,-0.00000595,0.00001377,0.00004767,-0.00000790,0.00000838,-0
 .00000051,0.00000652,0.00004761,-0.00377155,0.03519822,0.00000903,-0.0
 0778303,-0.00241627,-0.00001959,-0.19176501,0.17696750,-0.00004196,-0.
 00035517,-0.00163355,0.00000352,0.18837684,0.00009857,0.00022913,-0.00
 004026,-0.00005111,-0.00007038,0.00002745,-0.00008229,-0.00013443,0.00
 014872,0.00001940,-0.00002466,0.00000354,-0.00000482,0.00002309,-0.000
 07929,0.00000252,-0.00001177,-0.00005373,-0.00266442,0.00813548,0.0000
 4751,-0.00136030,0.00199071,-0.00000970,0.17732663,-0.36230423,-0.0000
 8832,-0.00020651,-0.00033623,-0.00001143,-0.19208099,0.36395770,0.0005
 9350,-0.00003816,-0.00017293,-0.00040794,0.00012004,0.00007883,-0.0002
 1295,-0.00003529,0.00045666,-0.00002418,0.00011797,-0.00004970,-0.0000
 4117,-0.00006393,-0.00031353,0.00001240,-0.00008415,-0.00008001,-0.000
 04656,0.00004440,-0.01014785,0.00001565,-0.00002657,0.00818985,0.00003
 411,-0.00012841,0.00203259,-0.00000594,-0.00001078,-0.00133699,0.00011
 272,0.00007867,0.00656566,0.00008459,0.00000034,0.00007235,-0.00006574
 ,0.00002729,-0.00006227,-0.00005514,-0.00003822,-0.00012217,-0.0000044
 7,0.00000120,0.00001236,0.00005206,0.00002350,0.00000011,0.00002832,0.
 00001081,0.00007365,-0.00876502,-0.04069102,0.00004637,0.00479461,0.00
 491177,-0.00000873,-0.16495967,-0.16302974,-0.00004674,-0.00592493,0.0
 0039717,-0.00003370,0.01525116,0.01900332,-0.00002963,0.15956423,0.000
 00356,0.00006271,0.00006399,0.00000965,-0.00004006,-0.00004312,-0.0000
 1867,-0.00007405,-0.00010494,0.00000461,-0.00003226,0.00001013,0.00000
 926,0.00003002,0.00006874,0.00001565,0.00005275,-0.00001444,-0.0038589
 5,0.00542548,0.00001822,0.00128140,-0.00150792,-0.00000810,-0.16129590
 ,-0.38413492,0.00007722,0.00048212,0.00131518,-0.00001262,-0.01601632,
 -0.01145441,0.00002621,0.17938359,0.39035748,0.00077025,0.00054441,-0.
 00012003,-0.00047430,-0.00006490,0.00006043,-0.00040722,-0.00046881,0.
 00067902,0.00001411,-0.00001560,-0.00002328,-0.00004483,0.00004908,-0.
 00033540,0.00005223,-0.00005880,-0.00028402,-0.00001548,-0.00004655,0.
 00118031,0.00000366,0.00000951,-0.00557451,0.00005138,0.00014921,-0.00
 491221,-0.00000880,0.00000689,0.00636063,-0.00003942,-0.00002316,-0.00
 522256,0.00009841,-0.00008128,0.00819164\\-0.00183882,0.00030905,-0.00
 020770,0.00054915,-0.00084632,0.00029470,0.00272958,-0.00126378,-0.000
 00248,0.00020841,-0.00012331,0.00000269,-0.00100034,0.00035836,0.00020
 635,-0.00068343,0.00141438,-0.00027125,-0.00255830,0.00010264,0.000282
 44,0.00034001,0.00009698,-0.00037268,0.00279495,-0.00226032,0.00048460
 ,-0.00001037,0.00028158,0.00008489,-0.00074628,0.00106943,-0.00026485,
 0.00021543,0.00086131,-0.00023672\\\@


 In the race for quality, there is no finish line.
                               -- David T. Kearns
 Job cpu time:       0 days  0 hours  4 minutes 16.6 seconds.
 Elapsed time:       0 days  0 hours  2 minutes 11.6 seconds.
 File lengths (MBytes):  RWF=     26 Int=      0 D2E=      0 Chk=      2 Scr=      1
 Normal termination of Gaussian 16 at Wed May  8 09:32:05 2019.
