 Entering Gaussian System, Link 0=g09
 Initial command:
 /opt/local/share/g09/l1.exe "./Gau-25776.inp" -scrdir="./"
 Entering Link 1 = /opt/local/share/g09/l1.exe PID=     25777.
  
 Copyright (c) 1988,1990,1992,1993,1995,1998,2003,2009,2013,
            Gaussian, Inc.  All Rights Reserved.
  
 This is part of the Gaussian(R) 09 program.  It is based on
 the Gaussian(R) 03 system (copyright 2003, Gaussian, Inc.),
 the Gaussian(R) 98 system (copyright 1998, Gaussian, Inc.),
 the Gaussian(R) 94 system (copyright 1995, Gaussian, Inc.),
 the Gaussian 92(TM) system (copyright 1992, Gaussian, Inc.),
 the Gaussian 90(TM) system (copyright 1990, Gaussian, Inc.),
 the Gaussian 88(TM) system (copyright 1988, Gaussian, Inc.),
 the Gaussian 86(TM) system (copyright 1986, Carnegie Mellon
 University), and the Gaussian 82(TM) system (copyright 1983,
 Carnegie Mellon University). Gaussian is a federally registered
 trademark of Gaussian, Inc.
  
 This software contains proprietary and confidential information,
 including trade secrets, belonging to Gaussian, Inc.
  
 This software is provided under written license and may be
 used, copied, transmitted, or stored only in accord with that
 written license.
  
 The following legend is applicable only to US Government
 contracts under FAR:
  
                    RESTRICTED RIGHTS LEGEND
  
 Use, reproduction and disclosure by the US Government is
 subject to restrictions as set forth in subparagraphs (a)
 and (c) of the Commercial Computer Software - Restricted
 Rights clause in FAR 52.227-19.
  
 Gaussian, Inc.
 340 Quinnipiac St., Bldg. 40, Wallingford CT 06492
  
  
 ---------------------------------------------------------------
 Warning -- This program may not be used in any manner that
 competes with the business of Gaussian, Inc. or will provide
 assistance to any competitor of Gaussian, Inc.  The licensee
 of this program is prohibited from giving any competitor of
 Gaussian, Inc. access to this program.  By using this program,
 the user acknowledges that Gaussian, Inc. is engaged in the
 business of creating and licensing software in the field of
 computational chemistry and represents and warrants to the
 licensee that it is not a competitor of Gaussian, Inc. and that
 it will not use this program in any manner prohibited above.
 ---------------------------------------------------------------
  

 Cite this work as:
 Gaussian 09, Revision D.01,
 M. J. Frisch, G. W. Trucks, H. B. Schlegel, G. E. Scuseria, 
 M. A. Robb, J. R. Cheeseman, G. Scalmani, V. Barone, B. Mennucci, 
 G. A. Petersson, H. Nakatsuji, M. Caricato, X. Li, H. P. Hratchian, 
 A. F. Izmaylov, J. Bloino, G. Zheng, J. L. Sonnenberg, M. Hada, 
 M. Ehara, K. Toyota, R. Fukuda, J. Hasegawa, M. Ishida, T. Nakajima, 
 Y. Honda, O. Kitao, H. Nakai, T. Vreven, J. A. Montgomery, Jr., 
 J. E. Peralta, F. Ogliaro, M. Bearpark, J. J. Heyd, E. Brothers, 
 K. N. Kudin, V. N. Staroverov, T. Keith, R. Kobayashi, J. Normand, 
 K. Raghavachari, A. Rendell, J. C. Burant, S. S. Iyengar, J. Tomasi, 
 M. Cossi, N. Rega, J. M. Millam, M. Klene, J. E. Knox, J. B. Cross, 
 V. Bakken, C. Adamo, J. Jaramillo, R. Gomperts, R. E. Stratmann, 
 O. Yazyev, A. J. Austin, R. Cammi, C. Pomelli, J. W. Ochterski, 
 R. L. Martin, K. Morokuma, V. G. Zakrzewski, G. A. Voth, 
 P. Salvador, J. J. Dannenberg, S. Dapprich, A. D. Daniels, 
 O. Farkas, J. B. Foresman, J. V. Ortiz, J. Cioslowski, 
 and D. J. Fox, Gaussian, Inc., Wallingford CT, 2013.
 
 ******************************************
 Gaussian 09:  EM64M-G09RevD.01 24-Apr-2013
                 6-May-2019 
 ******************************************
 %nprocshared=2
 Will use up to    2 processors via shared memory.
 %mem=2GB
 %chk=formamide_wb97xd.dimer_freq.chk
 ----------------------------------------
 # wb97xd/6-31+g* Pop=NaturalOrbital freq
 ----------------------------------------
 1/10=4,30=1,38=1/1,3;
 2/12=2,17=6,18=5,40=1/2;
 3/5=1,6=6,7=11,11=2,16=1,25=1,30=1,71=2,74=-58,140=1/1,2,3;
 4//1;
 5/5=2,38=5,98=1/2;
 8/6=4,10=90,11=11/1;
 11/6=1,8=1,9=11,15=111,16=1/1,2,10;
 10/6=1/2;
 6/7=2,8=2,9=2,10=2,18=1,22=-1,28=1,31=1/1;
 7/8=1,10=1,25=1/1,2,3,16;
 1/10=4,30=1/3;
 99//99;
 -------------------------------------
 Formamide dimer frequency calculation
 -------------------------------------
 Symbolic Z-matrix:
 Charge =  0 Multiplicity = 1
 C                     0.        0.421     0. 
 O                     1.199     0.227     0. 
 N                    -0.94     -0.558     0. 
 H                    -0.437     1.436     0. 
 H                    -1.925    -0.346     0. 
 H                    -0.648    -1.525     0. 
 C                     0.298     0.298     5. 
 O                     1.008    -0.687     5. 
 N                    -1.059     0.27      5. 
 H                     0.706     1.324     5. 
 H                    -1.606     1.117     5. 
 H                    -1.537    -0.62      5. 
 

 GradGradGradGradGradGradGradGradGradGradGradGradGradGradGradGradGradGrad
 Berny optimization.
 Initialization pass.
 Trust Radius=3.00D-01 FncErr=1.00D-07 GrdErr=1.00D-07
 Number of steps in this run=      2 maximum allowed number of steps=      2.
 GradGradGradGradGradGradGradGradGradGradGradGradGradGradGradGradGradGrad

                          Input orientation:                          
 ---------------------------------------------------------------------
 Center     Atomic      Atomic             Coordinates (Angstroms)
 Number     Number       Type             X           Y           Z
 ---------------------------------------------------------------------
      1          6           0        0.000000    0.421000    0.000000
      2          8           0        1.199000    0.227000    0.000000
      3          7           0       -0.940000   -0.558000    0.000000
      4          1           0       -0.437000    1.436000    0.000000
      5          1           0       -1.925000   -0.346000    0.000000
      6          1           0       -0.648000   -1.525000    0.000000
      7          6           0        0.298000    0.298000    5.000000
      8          8           0        1.008000   -0.687000    5.000000
      9          7           0       -1.059000    0.270000    5.000000
     10          1           0        0.706000    1.324000    5.000000
     11          1           0       -1.606000    1.117000    5.000000
     12          1           0       -1.537000   -0.620000    5.000000
 ---------------------------------------------------------------------
                    Distance matrix (angstroms):
                    1          2          3          4          5
     1  C    0.000000
     2  O    1.214593   0.000000
     3  N    1.357218   2.278496   0.000000
     4  H    1.105076   2.034251   2.056464   0.000000
     5  H    2.072176   3.176115   1.007556   2.321566   0.000000
     6  H    2.051053   2.545764   1.010125   2.968508   1.738036
     7  C    5.010383   5.081028   5.221626   5.180277   5.509670
     8  O    5.219552   5.086441   5.367620   5.620957   5.806787
     9  N    5.113148   5.486384   5.069492   5.171696   5.111694
    10  H    5.129702   5.142612   5.590281   5.130204   5.891609
    11  H    5.297514   5.801735   5.314996   5.144737   5.219399
    12  H    5.333484   5.762214   5.035896   5.516986   5.022511
                    6          7          8          9         10
     6  H    0.000000
     7  C    5.405390   0.000000
     8  O    5.333346   1.214218   0.000000
     9  N    5.328315   1.357289   2.277792   0.000000
    10  H    5.911862   1.104147   2.033550   2.055758   0.000000
    11  H    5.735672   2.072674   3.176069   1.008275   2.321248
    12  H    5.158425   2.051816   2.545882   1.010240   2.968196
                   11         12
    11  H    0.000000
    12  H    1.738370   0.000000
 Stoichiometry    C2H6N2O2
 Framework group  C1[X(C2H6N2O2)]
 Deg. of freedom    30
 Full point group                 C1      NOp   1
 Largest Abelian subgroup         C1      NOp   1
 Largest concise Abelian subgroup C1      NOp   1
                         Standard orientation:                         
 ---------------------------------------------------------------------
 Center     Atomic      Atomic             Coordinates (Angstroms)
 Number     Number       Type             X           Y           Z
 ---------------------------------------------------------------------
      1          6           0       -2.499993    0.000680   -0.420960
      2          8           0       -2.499996   -1.198594   -0.228661
      3          7           0       -2.500010    0.939291    0.559372
      4          1           0       -2.499975    0.439120   -1.435339
      5          1           0       -2.500006    1.924591    0.348769
      6          1           0       -2.500027    0.645920    1.525957
      7          6           0        2.500005   -0.297494   -0.298295
      8          8           0        2.499988   -1.008890    0.685697
      9          7           0        2.500005    1.059465   -0.268370
     10          1           0        2.500023   -0.704038   -1.324873
     11          1           0        2.500020    1.607666   -1.114593
     12          1           0        2.499989    1.536202    0.622307
 ---------------------------------------------------------------------
 Rotational constants (GHZ):      4.9200964      0.8600307      0.7887325
 Standard basis: 6-31+G(d) (6D, 7F)
 There are   126 symmetry adapted cartesian basis functions of A   symmetry.
 There are   126 symmetry adapted basis functions of A   symmetry.
   126 basis functions,   216 primitive gaussians,   126 cartesian basis functions
    24 alpha electrons       24 beta electrons
       nuclear repulsion energy       200.6038596942 Hartrees.
 NAtoms=   12 NActive=   12 NUniq=   12 SFac= 1.00D+00 NAtFMM=   60 NAOKFM=F Big=F
 Integral buffers will be    131072 words long.
 Raffenetti 2 integral format.
 Two-electron integral symmetry is turned on.
 Nuclear repulsion after empirical dispersion term =      200.6019183371 Hartrees.
 One-electron integrals computed using PRISM.
 NBasis=   126 RedAO= T EigKep=  2.01D-03  NBF=   126
 NBsUse=   126 1.00D-06 EigRej= -1.00D+00 NBFU=   126
 ExpMin= 4.38D-02 ExpMax= 5.48D+03 ExpMxC= 8.25D+02 IAcc=2 IRadAn=         4 AccDes= 0.00D+00
 Harris functional with IExCor= 4639 and IRadAn=       4 diagonalized for initial guess.
 HarFok:  IExCor= 4639 AccDes= 0.00D+00 IRadAn=         4 IDoV= 1 UseB2=F ITyADJ=14
 ICtDFT=  3500011 ScaDFX=  1.000000  1.000000  1.000000  1.000000
 FoFCou: FMM=F IPFlag=           0 FMFlag=      100000 FMFlg1=           0
         NFxFlg=           0 DoJE=T BraDBF=F KetDBF=T FulRan=T
         wScrn=  0.000000 ICntrl=     500 IOpCl=  0 I1Cent=   200000004 NGrid=           0
         NMat0=    1 NMatS0=      1 NMatT0=    0 NMatD0=    1 NMtDS0=    0 NMtDT0=    0
 Petite list used in FoFCou.
 Keep R1 ints in memory in canonical form, NReq=65116012.
 Requested convergence on RMS density matrix=1.00D-08 within 128 cycles.
 Requested convergence on MAX density matrix=1.00D-06.
 Requested convergence on             energy=1.00D-06.
 No special actions if energy rises.
 SCF Done:  E(RwB97XD) =  -339.687893570     A.U. after   12 cycles
            NFock= 12  Conv=0.89D-08     -V/T= 2.0092
 DoSCS=F DFT=T ScalE2(SS,OS)=  1.000000  1.000000
 Range of M.O.s used for correlation:     1   126
 NBasis=   126 NAE=    24 NBE=    24 NFC=     0 NFV=     0
 NROrb=    126 NOA=    24 NOB=    24 NVA=   102 NVB=   102
 Symmetrizing basis deriv contribution to polar:
 IMax=3 JMax=2 DiffMx= 0.00D+00
 G2DrvN: will do    13 centers at a time, making    1 passes.
 Calling FoFCou, ICntrl=  3107 FMM=F I1Cent=   0 AccDes= 0.00D+00.
 End of G2Drv F.D. properties file   721 does not exist.
 End of G2Drv F.D. properties file   722 does not exist.
 End of G2Drv F.D. properties file   788 does not exist.
          IDoAtm=111111111111
          Differentiating once with respect to electric field.
                with respect to dipole field.
          Differentiating once with respect to nuclear coordinates.
 Keep R1 ints in memory in canonical form, NReq=65052144.
          There are    39 degrees of freedom in the 1st order CPHF.  IDoFFX=6 NUNeed=     3.
     36 vectors produced by pass  0 Test12= 6.28D-15 2.56D-09 XBig12= 2.66D+01 2.22D+00.
 AX will form    36 AO Fock derivatives at one time.
     36 vectors produced by pass  1 Test12= 6.28D-15 2.56D-09 XBig12= 4.66D+00 4.88D-01.
     36 vectors produced by pass  2 Test12= 6.28D-15 2.56D-09 XBig12= 8.88D-02 4.76D-02.
     36 vectors produced by pass  3 Test12= 6.28D-15 2.56D-09 XBig12= 9.28D-04 6.14D-03.
     36 vectors produced by pass  4 Test12= 6.28D-15 2.56D-09 XBig12= 6.61D-06 4.48D-04.
     34 vectors produced by pass  5 Test12= 6.28D-15 2.56D-09 XBig12= 4.99D-08 3.83D-05.
     28 vectors produced by pass  6 Test12= 6.28D-15 2.56D-09 XBig12= 2.54D-10 1.92D-06.
      7 vectors produced by pass  7 Test12= 6.28D-15 2.56D-09 XBig12= 1.25D-12 1.26D-07.
      3 vectors produced by pass  8 Test12= 6.28D-15 2.56D-09 XBig12= 5.18D-15 8.96D-09.
 InvSVY:  IOpt=1 It=  1 EMax= 2.66D-15
 Solved reduced A of dimension   252 with    39 vectors.
 Isotropic polarizability for W=    0.000000       47.78 Bohr**3.
 End of Minotr F.D. properties file   721 does not exist.
 End of Minotr F.D. properties file   722 does not exist.
 End of Minotr F.D. properties file   788 does not exist.

 **********************************************************************

            Population analysis using the SCF density.

 **********************************************************************

 Orbital symmetries:
       Occupied  (A) (A) (A) (A) (A) (A) (A) (A) (A) (A) (A) (A)
                 (A) (A) (A) (A) (A) (A) (A) (A) (A) (A) (A) (A)
       Virtual   (A) (A) (A) (A) (A) (A) (A) (A) (A) (A) (A) (A)
                 (A) (A) (A) (A) (A) (A) (A) (A) (A) (A) (A) (A)
                 (A) (A) (A) (A) (A) (A) (A) (A) (A) (A) (A) (A)
                 (A) (A) (A) (A) (A) (A) (A) (A) (A) (A) (A) (A)
                 (A) (A) (A) (A) (A) (A) (A) (A) (A) (A) (A) (A)
                 (A) (A) (A) (A) (A) (A) (A) (A) (A) (A) (A) (A)
                 (A) (A) (A) (A) (A) (A) (A) (A) (A) (A) (A) (A)
                 (A) (A) (A) (A) (A) (A) (A) (A) (A) (A) (A) (A)
                 (A) (A) (A) (A) (A) (A)
 The electronic state is 1-A.
     Natural Orbital Coefficients:
                           1         2         3         4         5
     Eigenvalues --     2.00000   2.00000   2.00000   2.00000   2.00000
   1 1   C  1S          0.02992   0.05379  -0.26816   0.08546   0.25013
   2        2S         -0.00509  -0.05085   0.15346   0.00248   0.00548
   3        2PX        -0.03006   0.08377   0.08289   0.22988  -0.05150
   4        2PY        -0.01675  -0.11312  -0.00479   0.01006  -0.08987
   5        2PZ         0.06057  -0.09122  -0.14000   0.08881  -0.12298
   6        3S         -0.03210   0.02670   0.13819  -0.05929   0.00891
   7        3PX        -0.01408   0.03721   0.03604   0.09850  -0.02495
   8        3PY        -0.04595  -0.00236   0.03470  -0.01727  -0.04856
   9        3PZ        -0.00104   0.01660  -0.06015  -0.00001  -0.05147
  10        4S         -0.04359   0.03352   0.01586  -0.00803  -0.02131
  11        4PX        -0.00569   0.00804   0.00703   0.01900  -0.00467
  12        4PY        -0.02100   0.01603   0.00012  -0.01291  -0.02053
  13        4PZ        -0.00805   0.00723  -0.00611  -0.00087  -0.00676
  14        5XX        -0.00033   0.00298  -0.00659  -0.00259  -0.00160
  15        5YY         0.00630  -0.00255   0.00223   0.00638   0.00451
  16        5ZZ        -0.00791  -0.00040   0.00398  -0.00549  -0.00736
  17        5XY         0.00138  -0.00236  -0.00138  -0.00157   0.00407
  18        5XZ        -0.00084   0.00280   0.00311   0.00941  -0.00078
  19        5YZ         0.01793  -0.02100  -0.00490   0.01476   0.01435
  20 2   O  1S          0.02961  -0.12342   0.05033  -0.17125  -0.01700
  21        2S         -0.03167  -0.04031   0.06820   0.07034  -0.03666
  22        2PX        -0.03497   0.08440   0.07519   0.18906  -0.07465
  23        2PY         0.01221   0.10029   0.04504  -0.04294   0.03187
  24        2PZ        -0.17285   0.12195  -0.10130  -0.08955  -0.30655
  25        3S         -0.05898  -0.07011   0.05250   0.08651  -0.08408
  26        3PX        -0.02120   0.04997   0.04327   0.10831  -0.04622
  27        3PY        -0.00432   0.04840   0.01343  -0.02482  -0.00342
  28        3PZ        -0.11523   0.08786  -0.05321  -0.06358  -0.18845
  29        4S         -0.01862   0.00057  -0.01285  -0.00499  -0.02432
  30        4PX        -0.00006   0.00233   0.00226   0.00027  -0.00360
  31        4PY        -0.00201   0.01086  -0.00456  -0.00343   0.00228
  32        4PZ        -0.02340   0.01911  -0.00288  -0.01506  -0.03245
  33        5XX         0.00071   0.00060  -0.00287   0.00090   0.00102
  34        5YY         0.00041   0.00513   0.00254  -0.00094   0.00017
  35        5ZZ         0.00182   0.00062  -0.00148   0.00065   0.00485
  36        5XY        -0.00252   0.00641   0.00595   0.01563  -0.00503
  37        5XZ         0.00039  -0.00087  -0.00075  -0.00193   0.00081
  38        5YZ        -0.00596   0.00332  -0.00864  -0.00192  -0.01583
  39 3   N  1S         -0.03004   0.02729  -0.08126   0.06659  -0.08859
  40        2S          0.02832  -0.08958  -0.05258   0.10374   0.04264
  41        2PX        -0.01597   0.06314   0.07470   0.23538  -0.00530
  42        2PY        -0.01614   0.14263  -0.06176  -0.03581   0.06511
  43        2PZ        -0.08006   0.11765   0.01136  -0.04418   0.09605
  44        3S          0.08560  -0.13660  -0.06723   0.14847   0.11178
  45        3PX        -0.00919   0.04171   0.05041   0.16260   0.00097
  46        3PY        -0.01244   0.08147  -0.03521  -0.02460   0.02726
  47        3PZ        -0.06323   0.07161   0.01966  -0.03623   0.03261
  48        4S          0.05388  -0.05087  -0.01132   0.02308   0.04054
  49        4PX        -0.00042   0.00154   0.00443   0.01658   0.00520
  50        4PY         0.00133   0.00727  -0.00257   0.00232   0.00878
  51        4PZ        -0.01375   0.01169   0.00827  -0.00657  -0.00358
  52        5XX         0.00020   0.00231   0.00234  -0.00421  -0.00073
  53        5YY         0.00114   0.00290  -0.00485   0.00131  -0.00022
  54        5ZZ        -0.00452  -0.00061   0.00616  -0.00159   0.00296
  55        5XY         0.00068  -0.00183  -0.00176  -0.00479   0.00122
  56        5XZ         0.00065  -0.00189  -0.00192  -0.00546   0.00101
  57        5YZ         0.00076  -0.00310   0.00375  -0.00034  -0.00415
  58 4   H  1S         -0.07482   0.03676   0.12475  -0.06732   0.00135
  59        2S         -0.08707   0.06888   0.05048  -0.07177  -0.04113
  60 5   H  1S          0.00751   0.04394  -0.05714   0.01516   0.03155
  61        2S         -0.01780   0.04463  -0.01707  -0.01744  -0.01932
  62 6   H  1S         -0.03832   0.01531   0.00820   0.00801   0.05461
  63        2S         -0.02590   0.02401   0.01419  -0.01600   0.00813
  64 7   C  1S         -0.03875   0.07632  -0.35226   0.16368   0.38520
  65        2S          0.02027  -0.12942   0.22055  -0.07076  -0.05089
  66        2PX        -0.00800   0.11804   0.11800   0.17374   0.00066
  67        2PY         0.02162   0.12078   0.01348  -0.07105  -0.07521
  68        2PZ        -0.11330  -0.27699  -0.02250   0.13954   0.00240
  69        3S          0.08853  -0.09502   0.17997  -0.05937   0.01489
  70        3PX         0.00206   0.05270   0.05182   0.07411  -0.00585
  71        3PY         0.10546   0.02467  -0.00941   0.00674  -0.03263
  72        3PZ        -0.05339  -0.09170  -0.03766   0.05337   0.02681
  73        4S          0.09426  -0.00684   0.01162   0.00268  -0.02854
  74        4PX        -0.00076   0.00931   0.00979   0.01287   0.00083
  75        4PY         0.05370  -0.00301   0.00454   0.00415  -0.00663
  76        4PZ        -0.02361  -0.00355  -0.01190   0.00484  -0.00361
  77        5XX         0.00146   0.01013  -0.00966   0.00103   0.00324
  78        5YY        -0.03982   0.00776   0.00230  -0.00983  -0.00305
  79        5ZZ         0.03979  -0.00396   0.00292   0.00586  -0.00794
  80        5XY        -0.00702  -0.00074   0.00106   0.00414   0.00808
  81        5XZ         0.00300   0.00579   0.00491   0.00605  -0.00389
  82        5YZ         0.02237   0.02133   0.00786  -0.00960   0.00859
  83 8   O  1S          0.06195  -0.03689   0.13624  -0.03290   0.24179
  84        2S         -0.02329   0.00890  -0.06381   0.05154  -0.18809
  85        2PX         0.05523   0.13074   0.11368   0.14467  -0.07313
  86        2PY         0.38315  -0.27093   0.08723   0.12629  -0.03190
  87        2PZ         0.37771   0.29825  -0.12319  -0.01417  -0.10928
  88        3S          0.03364   0.16670  -0.12139   0.02043  -0.24750
  89        3PX         0.03738   0.07809   0.06673   0.08301  -0.04887
  90        3PY         0.27321  -0.11512   0.03956   0.06665  -0.03180
  91        3PZ         0.22244   0.11721  -0.05248   0.00765  -0.05572
  92        4S          0.05145   0.06601  -0.02534  -0.00274  -0.02137
  93        4PX         0.00995   0.00642   0.00270   0.00114  -0.01262
  94        4PY         0.05441  -0.00978  -0.00092   0.01393  -0.00899
  95        4PZ         0.04422   0.01339   0.00476  -0.00425  -0.00965
  96        5XX        -0.00199   0.00441  -0.00339  -0.00072   0.00100
  97        5YY         0.01642  -0.00840   0.00092   0.00512  -0.00218
  98        5ZZ        -0.02102  -0.00894   0.00671  -0.00270   0.00702
  99        5XY         0.00144   0.00587   0.00549   0.00745  -0.00196
 100        5XZ        -0.00191  -0.00762  -0.00701  -0.00940   0.00286
 101        5YZ        -0.00378   0.01584  -0.00758  -0.00361   0.00164
 102 9   N  1S          0.00337   0.02512  -0.12265   0.13206  -0.16527
 103        2S         -0.11268   0.02251   0.08224  -0.02006  -0.08736
 104        2PX        -0.09920   0.07284   0.09705   0.17677   0.10825
 105        2PY         0.06799  -0.02664  -0.11341   0.12740   0.05689
 106        2PZ         0.02595   0.11934   0.13474  -0.05920   0.15965
 107        3S         -0.27515   0.02358   0.06166  -0.03079  -0.06717
 108        3PX        -0.07726   0.04574   0.06476   0.12164   0.08556
 109        3PY         0.08382  -0.01412  -0.04327   0.06461   0.02770
 110        3PZ         0.03839   0.07443   0.08340  -0.03714   0.08223
 111        4S         -0.13640   0.01409  -0.01626  -0.01350   0.03279
 112        4PX        -0.01795   0.00130   0.00494   0.01471   0.01739
 113        4PY         0.01777  -0.00720   0.00567   0.00564  -0.00579
 114        4PZ         0.02350   0.00561   0.01722  -0.00476   0.00806
 115        5XX         0.00190  -0.00038  -0.00330  -0.00041   0.00553
 116        5YY         0.00407  -0.00390   0.00765  -0.00245  -0.00282
 117        5ZZ         0.00146   0.00175  -0.00076   0.00257   0.00090
 118        5XY         0.00030  -0.00369  -0.00368  -0.00547  -0.00008
 119        5XZ         0.00046   0.00003  -0.00009  -0.00028  -0.00055
 120        5YZ         0.00346   0.01293   0.00762  -0.00733   0.00667
 121 10  H  1S          0.16023   0.07630   0.09497  -0.07081  -0.01286
 122        2S          0.20659   0.06667   0.03142  -0.01727  -0.00369
 123 11  H  1S         -0.01634  -0.07468  -0.07407   0.06951  -0.08633
 124        2S          0.05897  -0.04703  -0.03088   0.04098  -0.02994
 125 12  H  1S          0.01060   0.07289   0.06560  -0.00866   0.06856
 126        2S          0.04230   0.03618   0.01124  -0.00322   0.02618
                           6         7         8         9        10
     Eigenvalues --     2.00000   2.00000   2.00000   2.00000   2.00000
   1 1   C  1S         -0.11742  -0.33363  -0.21633  -0.05198   0.20164
   2        2S         -0.04465  -0.01050  -0.00003   0.18883  -0.12380
   3        2PX         0.03467  -0.07453   0.00746  -0.04583  -0.01397
   4        2PY         0.12931  -0.14449   0.16456  -0.11297   0.10148
   5        2PZ        -0.04596   0.03187  -0.06630  -0.01676  -0.23314
   6        3S          0.00118  -0.00786   0.02936   0.09026  -0.01943
   7        3PX         0.01446  -0.02943   0.00249  -0.01946  -0.00529
   8        3PY         0.05255  -0.07858   0.05082   0.04508   0.05604
   9        3PZ         0.00272  -0.00928  -0.02678  -0.01797  -0.05127
  10        4S          0.02446  -0.03917   0.03201   0.05335   0.00829
  11        4PX         0.00372  -0.00648   0.00484   0.00205  -0.00199
  12        4PY         0.01786  -0.02108   0.01631   0.01127   0.01138
  13        4PZ         0.00461  -0.00928   0.00386   0.00414  -0.00495
  14        5XX         0.00525   0.00071   0.00345  -0.01443   0.00954
  15        5YY        -0.01017   0.01258  -0.01146   0.01178  -0.01948
  16        5ZZ         0.01256  -0.00933   0.01706  -0.00577   0.01805
  17        5XY         0.00070  -0.00305   0.00040  -0.00036   0.00011
  18        5XZ         0.00173  -0.00427   0.00045  -0.00219  -0.00058
  19        5YZ        -0.01025   0.01720  -0.00058  -0.01745  -0.00994
  20 2   O  1S          0.00017   0.13057   0.10252  -0.02861   0.18326
  21        2S         -0.04873  -0.02192  -0.08044   0.29091  -0.05103
  22        2PX         0.02034  -0.03019   0.00222  -0.03175  -0.01168
  23        2PY        -0.11578   0.12404  -0.12735   0.12865  -0.21936
  24        2PZ         0.16753  -0.25187   0.06511   0.09269   0.01336
  25        3S          0.01193  -0.10241  -0.02634   0.28303   0.02385
  26        3PX         0.01109  -0.01396   0.00108  -0.01693  -0.00641
  27        3PY        -0.03503   0.03607  -0.04321   0.05327  -0.08974
  28        3PZ         0.10495  -0.15890   0.04032   0.07108   0.01216
  29        4S          0.03274  -0.04028   0.02477  -0.00179   0.04387
  30        4PX        -0.00224   0.00502  -0.00156  -0.00158  -0.00114
  31        4PY        -0.00299   0.00230  -0.00630   0.00417  -0.00638
  32        4PZ         0.02168  -0.03084   0.01090   0.01867   0.00790
  33        5XX         0.00138  -0.00134   0.00077  -0.00649   0.00177
  34        5YY        -0.00599   0.00519  -0.00675   0.00768  -0.01514
  35        5ZZ         0.00050   0.00098   0.00125  -0.00900   0.00420
  36        5XY         0.00199  -0.00361   0.00036  -0.00281  -0.00093
  37        5XZ        -0.00025   0.00040  -0.00004   0.00028   0.00012
  38        5YZ         0.00704  -0.01074   0.00184   0.00148  -0.00323
  39 3   N  1S         -0.24999   0.00764   0.03992  -0.12363  -0.10283
  40        2S         -0.02794   0.07117   0.09985   0.03874  -0.07639
  41        2PX         0.04708  -0.12106   0.01297  -0.05635  -0.01444
  42        2PY         0.00319   0.02208  -0.04789   0.01211  -0.01848
  43        2PZ         0.00381   0.04172   0.05055   0.02474   0.24993
  44        3S         -0.06714   0.14372   0.07704  -0.00004  -0.09762
  45        3PX         0.03372  -0.08756   0.00916  -0.03931  -0.00965
  46        3PY         0.00636   0.00562  -0.02298   0.00461  -0.01453
  47        3PZ         0.01748  -0.00161   0.04248   0.03327   0.14810
  48        4S         -0.03776   0.05366  -0.03353  -0.05878  -0.01450
  49        4PX         0.00400  -0.01359   0.00154  -0.00766  -0.00259
  50        4PY        -0.00168   0.00441  -0.00021   0.00490  -0.00639
  51        4PZ         0.00622  -0.00564   0.01121   0.01818   0.01362
  52        5XX         0.00216  -0.00232  -0.00518  -0.00243   0.00367
  53        5YY        -0.00019   0.00278  -0.00407   0.00572  -0.01152
  54        5ZZ         0.00510  -0.00197   0.00872   0.00484   0.01366
  55        5XY        -0.00069   0.00141  -0.00014   0.00093   0.00030
  56        5XZ        -0.00087   0.00196  -0.00021   0.00111   0.00033
  57        5YZ        -0.00042  -0.00196  -0.00176   0.00266  -0.00600
  58 4   H  1S          0.06604  -0.08656   0.08769   0.07570   0.12120
  59        2S          0.07924  -0.10067   0.06945   0.04471   0.12034
  60 5   H  1S         -0.00626   0.02918  -0.00848   0.02285  -0.07414
  61        2S          0.00981  -0.01485  -0.01576   0.02430  -0.02363
  62 6   H  1S          0.00319   0.03146   0.07401   0.02703   0.13066
  63        2S          0.01602  -0.01230   0.02387   0.00942   0.06839
  64 7   C  1S         -0.11240  -0.45955  -0.18579   0.25080   0.03327
  65        2S         -0.12704  -0.13173  -0.06392  -0.05741  -0.01236
  66        2PX         0.00876   0.05754   0.04391   0.02005   0.01463
  67        2PY         0.05496  -0.11475  -0.07062  -0.10526  -0.12936
  68        2PZ         0.08432   0.01277  -0.06606  -0.02496   0.08422
  69        3S         -0.08739  -0.07933   0.04653  -0.02597  -0.01696
  70        3PX         0.00384   0.02569   0.01797   0.02050   0.01200
  71        3PY         0.01752  -0.01945  -0.00109  -0.00204   0.00845
  72        3PZ         0.05150  -0.00055   0.00532  -0.00624  -0.00092
  73        4S         -0.01100   0.00631  -0.03165  -0.00307   0.04967
  74        4PX         0.00031   0.00248   0.00659   0.00874  -0.00056
  75        4PY        -0.00081  -0.00620  -0.00861  -0.00333   0.01597
  76        4PZ         0.00500   0.01021  -0.00565   0.00334   0.00040
  77        5XX         0.00745   0.00823   0.00834   0.00214  -0.00259
  78        5YY        -0.00130   0.00513  -0.00933  -0.00928  -0.01242
  79        5ZZ        -0.00070   0.00380   0.00632   0.00529   0.01473
  80        5XY        -0.00014  -0.00020   0.00095  -0.01667  -0.00685
  81        5XZ         0.00050   0.00276   0.00154   0.00896   0.00400
  82        5YZ        -0.00150  -0.00741   0.00591  -0.00283  -0.00586
  83 8   O  1S          0.66245   0.07982  -0.32239   0.07229  -0.21979
  84        2S         -0.01022   0.13153  -0.14995   0.05407   0.16488
  85        2PX         0.01069   0.06238   0.03714   0.17274   0.07764
  86        2PY         0.04715  -0.11462   0.00510  -0.02500   0.11627
  87        2PZ         0.07298  -0.01957  -0.00848   0.01322   0.01092
  88        3S         -0.01128   0.15310  -0.16779   0.06365   0.16158
  89        3PX         0.00642   0.03729   0.02162   0.11419   0.05039
  90        3PY         0.02850  -0.06853   0.00409  -0.01125   0.06849
  91        3PZ         0.03744  -0.01398  -0.00261   0.00996   0.02491
  92        4S         -0.00254   0.00385  -0.00565   0.00750   0.00450
  93        4PX         0.00082   0.00270  -0.00074   0.02414   0.01164
  94        4PY         0.00345  -0.00673   0.00016   0.00281   0.01527
  95        4PZ         0.00063  -0.00910   0.00198  -0.00203   0.00290
  96        5XX        -0.00404  -0.00099   0.00500  -0.00041  -0.00154
  97        5YY        -0.00029  -0.00803   0.00307  -0.00370   0.00297
  98        5ZZ        -0.01167   0.00085   0.00579  -0.00050  -0.00126
  99        5XY         0.00049   0.00281   0.00192   0.00510   0.00241
 100        5XZ        -0.00060  -0.00369  -0.00242  -0.00728  -0.00336
 101        5YZ         0.00098   0.00394   0.00233   0.00235  -0.00406
 102 9   N  1S         -0.31720   0.05987   0.21177   0.07887   0.03031
 103        2S         -0.07865  -0.00756  -0.26963  -0.12350   0.04672
 104        2PX         0.00403   0.03769   0.04331  -0.20831  -0.08081
 105        2PY        -0.00813   0.15653  -0.03019   0.08954   0.19481
 106        2PZ        -0.03126   0.00404  -0.00774  -0.02870   0.04885
 107        3S         -0.06621   0.02182  -0.30603  -0.13466   0.02551
 108        3PX         0.00230   0.02393   0.02949  -0.16639  -0.06521
 109        3PY        -0.00954   0.06946  -0.01248   0.04453   0.10816
 110        3PZ        -0.02346  -0.00021  -0.00573  -0.01533   0.03337
 111        4S          0.01075   0.00537   0.02278   0.00119  -0.05441
 112        4PX         0.00078   0.00032   0.00394  -0.03932  -0.01539
 113        4PY        -0.00796   0.00482  -0.01330  -0.00019   0.01829
 114        4PZ        -0.00413  -0.00644   0.00177  -0.00346   0.00619
 115        5XX         0.00599  -0.00002   0.01079   0.00475  -0.00359
 116        5YY        -0.00026  -0.00396  -0.00519  -0.00358   0.00046
 117        5ZZ         0.00038   0.00476  -0.01115  -0.00120   0.00838
 118        5XY        -0.00028  -0.00181  -0.00137  -0.00052  -0.00043
 119        5XZ         0.00001   0.00001  -0.00006   0.00110   0.00044
 120        5YZ        -0.00434  -0.00036   0.00170  -0.00059  -0.00065
 121 10  H  1S         -0.09163  -0.02896   0.03425   0.01628   0.00745
 122        2S         -0.03643  -0.01637   0.03498   0.02630   0.03335
 123 11  H  1S         -0.00340   0.04129  -0.09278   0.00184   0.05748
 124        2S          0.01142   0.00740  -0.00063   0.01541   0.03165
 125 12  H  1S         -0.04418   0.04141  -0.09355  -0.02606   0.09120
 126        2S         -0.01243   0.01551   0.00295   0.01003   0.02898
                          11        12        13        14        15
     Eigenvalues --     2.00000   2.00000   2.00000   2.00000   2.00000
   1 1   C  1S          0.05909   0.02058  -0.26366   0.16205   0.20975
   2        2S          0.09978  -0.08589   0.06310   0.00304   0.02017
   3        2PX         0.00437  -0.00516  -0.06708  -0.16886  -0.04548
   4        2PY         0.03143  -0.07443  -0.13541   0.00762   0.04543
   5        2PZ        -0.06228  -0.02284  -0.05025   0.09024   0.03926
   6        3S          0.07358  -0.04314   0.09087  -0.00882  -0.00663
   7        3PX         0.00456   0.00285  -0.03852  -0.08347  -0.02222
   8        3PY         0.00990  -0.02143   0.02176  -0.01101   0.02154
   9        3PZ        -0.02361   0.01736   0.00960   0.03371   0.00956
  10        4S         -0.00137  -0.00093   0.04136   0.00241   0.04041
  11        4PX         0.00038   0.00321  -0.00900  -0.01548  -0.00230
  12        4PY         0.00187  -0.00058   0.01500   0.00371   0.02151
  13        4PZ        -0.00230   0.00050   0.00724   0.00285   0.01160
  14        5XX        -0.00524   0.00438  -0.00308  -0.00115  -0.00286
  15        5YY         0.00300   0.00340   0.00214  -0.00342  -0.00786
  16        5ZZ        -0.00285  -0.00481   0.00069  -0.00126   0.00749
  17        5XY        -0.00363  -0.00773   0.01499   0.01824   0.00376
  18        5XZ        -0.00108  -0.00295   0.00232  -0.00095  -0.00067
  19        5YZ         0.00044  -0.00494  -0.02507  -0.00068  -0.00397
  20 2   O  1S          0.03749  -0.13551  -0.15587   0.45088  -0.13933
  21        2S         -0.02190  -0.01275   0.09339  -0.05650  -0.03328
  22        2PX         0.03498   0.06317  -0.18156  -0.28737  -0.06741
  23        2PY         0.03694   0.02524   0.15421   0.05042  -0.00065
  24        2PZ        -0.05265   0.01746   0.14633   0.09157   0.14234
  25        3S         -0.03579  -0.02331   0.05838  -0.07849  -0.01551
  26        3PX         0.02347   0.04284  -0.11651  -0.17894  -0.04150
  27        3PY         0.01735   0.01122   0.06770   0.02716   0.01157
  28        3PZ        -0.02822   0.01290   0.10504   0.05467   0.09019
  29        4S         -0.00229   0.00357  -0.01104  -0.00404   0.01974
  30        4PX         0.00402   0.01069  -0.01930  -0.02297  -0.00529
  31        4PY         0.00062   0.00698   0.00638   0.00383   0.00363
  32        4PZ        -0.00036   0.00311   0.02167   0.00835   0.01716
  33        5XX        -0.00087   0.00163  -0.00234  -0.00312   0.00094
  34        5YY         0.00198   0.00101   0.00963   0.00019   0.00237
  35        5ZZ        -0.00035   0.00176  -0.00366  -0.00428  -0.00015
  36        5XY         0.00177   0.00285  -0.01056  -0.01850  -0.00450
  37        5XZ        -0.00031  -0.00059   0.00171   0.00280   0.00063
  38        5YZ        -0.00371   0.00085   0.00373   0.00586   0.00673
  39 3   N  1S         -0.03803   0.10711   0.24769  -0.20924   0.02587
  40        2S          0.00875  -0.03088  -0.12219   0.02077   0.20912
  41        2PX        -0.04100  -0.10380   0.11532   0.04360  -0.00312
  42        2PY         0.06569   0.13196   0.00274  -0.00874   0.00778
  43        2PZ        -0.11304   0.03157   0.09169  -0.04028   0.11020
  44        3S          0.00331  -0.03441  -0.19408   0.01536   0.18786
  45        3PX        -0.03243  -0.08068   0.09785   0.05197   0.00181
  46        3PY         0.03775   0.07117   0.00509   0.00101   0.00845
  47        3PZ        -0.05982   0.00953   0.06970  -0.02054   0.07248
  48        4S         -0.00711  -0.00376  -0.05733  -0.00538  -0.05134
  49        4PX        -0.00817  -0.01962   0.02699   0.02478   0.00428
  50        4PY         0.00645   0.00703  -0.00235   0.00023   0.00497
  51        4PZ        -0.00276  -0.00167   0.01605  -0.00082   0.01748
  52        5XX        -0.00056   0.00041   0.00232   0.00040  -0.01030
  53        5YY         0.00340   0.00362  -0.00267   0.00455   0.00421
  54        5ZZ        -0.00217  -0.00475  -0.00022  -0.00068   0.00823
  55        5XY        -0.00025  -0.00019   0.00196   0.00421   0.00111
  56        5XZ         0.00011   0.00052   0.00081   0.00308   0.00087
  57        5YZ         0.00226  -0.00308   0.00225   0.00064  -0.00450
  58 4   H  1S          0.06015  -0.03061   0.06215  -0.03813   0.01977
  59        2S          0.01902  -0.00200   0.07017  -0.01271   0.04158
  60 5   H  1S          0.05115   0.06266  -0.04229   0.01359   0.05856
  61        2S          0.01579   0.02991   0.02592   0.00904   0.00884
  62 6   H  1S         -0.06600  -0.01659   0.01174  -0.01570   0.12378
  63        2S         -0.01648  -0.00006   0.02344  -0.01106   0.02201
  64 7   C  1S          0.00222  -0.10878  -0.02745   0.07765  -0.17435
  65        2S         -0.03137  -0.02640  -0.11816   0.01641   0.04929
  66        2PX        -0.04796   0.06440  -0.04755   0.21624  -0.02731
  67        2PY         0.10716   0.11942   0.01652   0.08389  -0.00713
  68        2PZ         0.19345   0.18271   0.10670   0.05028  -0.03618
  69        3S         -0.10225  -0.02212  -0.05860  -0.02253   0.06513
  70        3PX        -0.02551   0.04470  -0.03095   0.09335  -0.01451
  71        3PY         0.02736  -0.00775   0.02515   0.00720   0.00008
  72        3PZ         0.02931   0.09046   0.05746   0.02022  -0.01881
  73        4S         -0.00831  -0.02027   0.01833  -0.01907   0.00925
  74        4PX        -0.00825   0.01249  -0.00714   0.01753  -0.00173
  75        4PY        -0.01017   0.00097   0.02152  -0.00301   0.00654
  76        4PZ         0.00964   0.00239  -0.00703  -0.00115  -0.01032
  77        5XX        -0.00192   0.00187   0.00645  -0.00201  -0.00097
  78        5YY         0.00243   0.00823  -0.01048   0.00397  -0.00191
  79        5ZZ        -0.00264  -0.01252   0.00767  -0.00551   0.00409
  80        5XY         0.00626  -0.02338   0.01437   0.00243   0.00305
  81        5XZ        -0.00518   0.01429  -0.00912   0.00878  -0.00275
  82        5YZ        -0.00447   0.00138   0.00494  -0.00242   0.00817
  83 8   O  1S         -0.16481  -0.03390  -0.12262  -0.05706   0.39899
  84        2S          0.23855  -0.18410  -0.09665  -0.00170  -0.05742
  85        2PX        -0.10669   0.28044  -0.18092   0.20409  -0.05667
  86        2PY         0.02002   0.10957   0.18777   0.02094   0.04934
  87        2PZ         0.07825  -0.08771   0.09114   0.01171  -0.00927
  88        3S          0.27110  -0.25739  -0.11520  -0.00397  -0.07780
  89        3PX        -0.06741   0.18275  -0.11770   0.11919  -0.03596
  90        3PY         0.00224   0.04235   0.11569   0.00965   0.03068
  91        3PZ         0.04314  -0.04161   0.05897   0.00340  -0.00026
  92        4S         -0.00946  -0.03646   0.00763   0.00436  -0.00125
  93        4PX        -0.01026   0.03517  -0.02190   0.00481  -0.00533
  94        4PY        -0.00908  -0.00513   0.01874  -0.00109   0.00439
  95        4PZ         0.00208  -0.00798   0.00715   0.00031   0.00608
  96        5XX        -0.00133   0.00176   0.00186   0.00065  -0.00339
  97        5YY         0.00336   0.00992   0.01211   0.00330  -0.00131
  98        5ZZ        -0.00786   0.00158  -0.00642  -0.00190  -0.00119
  99        5XY        -0.00388   0.00899  -0.00583   0.00990  -0.00208
 100        5XZ         0.00526  -0.01249   0.00821  -0.01266   0.00282
 101        5YZ        -0.00223  -0.00499  -0.00235  -0.00132  -0.00176
 102 9   N  1S          0.24810   0.04173  -0.01413   0.00903   0.49511
 103        2S         -0.08011   0.07238   0.03940   0.03724   0.07161
 104        2PX         0.04973  -0.26705   0.15834   0.18406   0.02152
 105        2PY        -0.16314  -0.08761   0.12654  -0.07941   0.01707
 106        2PZ         0.21175   0.08723   0.04288  -0.03241   0.08461
 107        3S         -0.07107   0.09924   0.01472   0.04500   0.03718
 108        3PX         0.04420  -0.21699   0.13030   0.12371   0.01951
 109        3PY        -0.09447  -0.04979   0.07432  -0.04439   0.01902
 110        3PZ         0.12017   0.03648   0.02123  -0.02102   0.05137
 111        4S          0.02916   0.02386  -0.03546   0.01928  -0.01779
 112        4PX         0.01473  -0.05470   0.03184   0.00928   0.00735
 113        4PY        -0.01840  -0.00715   0.00817  -0.00558   0.00649
 114        4PZ         0.01335   0.00374   0.00750  -0.00204   0.01055
 115        5XX         0.00330  -0.00254  -0.00239  -0.00124  -0.00688
 116        5YY        -0.00249  -0.00034  -0.00117   0.00100  -0.00197
 117        5ZZ        -0.00979  -0.00172   0.00661  -0.00186  -0.00137
 118        5XY         0.00149  -0.00186   0.00136  -0.00679   0.00082
 119        5XZ        -0.00043   0.00154  -0.00096  -0.00018  -0.00021
 120        5YZ         0.00466  -0.00198  -0.00268  -0.00287   0.00478
 121 10  H  1S         -0.12415  -0.13316  -0.06519  -0.04492   0.05197
 122        2S         -0.08171  -0.08903   0.01208  -0.03536   0.03822
 123 11  H  1S         -0.17497  -0.03930   0.04110   0.00454  -0.01875
 124        2S         -0.04729  -0.02037   0.02953  -0.00335  -0.00790
 125 12  H  1S          0.02623   0.02874   0.06328  -0.03015   0.06657
 126        2S          0.00061  -0.01747   0.01463  -0.01997   0.01974
                          16        17        18        19        20
     Eigenvalues --     2.00000   2.00000   2.00000   2.00000   2.00000
   1 1   C  1S          0.08574  -0.15958  -0.09209  -0.10697   0.40821
   2        2S         -0.03352   0.00009   0.00041   0.13461   0.14388
   3        2PX        -0.00675  -0.04805  -0.14457   0.00532  -0.04675
   4        2PY         0.06153   0.22463   0.08468   0.01487   0.06936
   5        2PZ        -0.05742   0.01866  -0.07631  -0.04620  -0.04176
   6        3S         -0.02773  -0.08255   0.02551   0.13797   0.08103
   7        3PX        -0.00311  -0.01952  -0.06541   0.01904  -0.01780
   8        3PY         0.01887   0.05687   0.02597   0.00601   0.02136
   9        3PZ        -0.02006  -0.03350  -0.02073  -0.03183  -0.02738
  10        4S         -0.03719  -0.01274  -0.00884  -0.00791  -0.01906
  11        4PX        -0.00216  -0.00364  -0.01231   0.00364  -0.00543
  12        4PY        -0.02179  -0.01280   0.00188   0.01053  -0.00260
  13        4PZ        -0.01121  -0.00328  -0.00569  -0.01044  -0.00882
  14        5XX         0.00275   0.00010   0.00243  -0.00517  -0.00910
  15        5YY         0.00089   0.00563  -0.00356  -0.00966  -0.00191
  16        5ZZ        -0.00273   0.00448   0.00573   0.00951  -0.00303
  17        5XY         0.00083  -0.00112   0.00702  -0.02516  -0.00249
  18        5XZ         0.00001  -0.00247  -0.00382  -0.00855  -0.00289
  19        5YZ         0.00380   0.01709  -0.00110  -0.00049   0.00193
  20 2   O  1S          0.21555   0.03618  -0.49950   0.17319  -0.39321
  21        2S          0.08051   0.15261  -0.05207  -0.12030  -0.02318
  22        2PX        -0.01252  -0.02718  -0.17128   0.22285  -0.01401
  23        2PY        -0.14368  -0.28059  -0.07642   0.10543   0.01126
  24        2PZ        -0.09473  -0.04645  -0.00773  -0.04688  -0.05102
  25        3S          0.12551   0.27659  -0.01903  -0.17566  -0.02387
  26        3PX        -0.00818  -0.01448  -0.10295   0.14903  -0.00576
  27        3PY        -0.06992  -0.11636  -0.02846   0.04495   0.00582
  28        3PZ        -0.06444  -0.04118  -0.00457  -0.02352  -0.02973
  29        4S          0.00587   0.04597   0.01797  -0.01870   0.00221
  30        4PX        -0.00013   0.00203  -0.00877   0.03476   0.00452
  31        4PY        -0.00885  -0.01179  -0.00380  -0.00481  -0.00319
  32        4PZ        -0.01250  -0.00566   0.00294  -0.00019  -0.00118
  33        5XX        -0.00068   0.00014   0.00525  -0.00172   0.00281
  34        5YY        -0.01090  -0.01557  -0.00024   0.00679   0.00482
  35        5ZZ        -0.00022  -0.00105   0.00582   0.00006   0.00302
  36        5XY        -0.00077  -0.00262  -0.01229   0.01067  -0.00203
  37        5XZ         0.00013   0.00028   0.00171  -0.00206   0.00018
  38        5YZ        -0.00453  -0.00043  -0.00147  -0.00445  -0.00339
  39 3   N  1S          0.30106   0.05925   0.48794   0.13108  -0.35057
  40        2S         -0.21440   0.16071  -0.03038   0.03288  -0.04407
  41        2PX         0.00329  -0.06737  -0.07164  -0.31235  -0.08316
  42        2PY        -0.06568  -0.00578   0.00188  -0.15341  -0.03318
  43        2PZ        -0.11933  -0.16564  -0.04086   0.08234  -0.13807
  44        3S         -0.21345   0.19009  -0.05858   0.01365  -0.04420
  45        3PX         0.00342  -0.04799  -0.04151  -0.24674  -0.06079
  46        3PY        -0.04115  -0.01017   0.00196  -0.07947  -0.01560
  47        3PZ        -0.07100  -0.09459  -0.01786   0.05915  -0.06960
  48        4S          0.05234   0.02434   0.00520   0.00307   0.01773
  49        4PX         0.00148  -0.00723   0.00199  -0.05501  -0.00917
  50        4PY        -0.00955   0.00526  -0.00152  -0.01145  -0.00233
  51        4PZ        -0.01914  -0.01200  -0.00197   0.01478  -0.00559
  52        5XX         0.00868  -0.00668  -0.00186  -0.00253   0.00434
  53        5YY        -0.01137   0.00113  -0.00685  -0.00794   0.00139
  54        5ZZ        -0.00819   0.00047  -0.00333   0.00792   0.00106
  55        5XY         0.00015   0.00095   0.00326  -0.00113   0.00086
  56        5XZ         0.00014   0.00122   0.00311   0.00123   0.00127
  57        5YZ         0.00484   0.00029   0.00108   0.00241   0.00485
  58 4   H  1S          0.01016   0.01617   0.05805   0.08003   0.06719
  59        2S         -0.01320  -0.01667   0.03721   0.03676   0.01682
  60 5   H  1S         -0.09937   0.05535  -0.01342  -0.08934  -0.01576
  61        2S         -0.02497  -0.01669  -0.00367  -0.03418  -0.00666
  62 6   H  1S         -0.11930  -0.03499  -0.03111   0.08111  -0.07585
  63        2S         -0.01408  -0.02248   0.00170   0.02204  -0.01830
  64 7   C  1S          0.02156   0.08446   0.12376   0.27156  -0.32939
  65        2S         -0.07447  -0.10155   0.07313  -0.05253  -0.09086
  66        2PX         0.01282   0.00519   0.12268   0.04164   0.02915
  67        2PY        -0.00935   0.08697  -0.05335   0.13591  -0.02481
  68        2PZ        -0.05819  -0.06968   0.01314   0.01752  -0.02808
  69        3S         -0.02000  -0.08612   0.02800  -0.07770  -0.03298
  70        3PX         0.00623   0.00148   0.05622   0.01541   0.01187
  71        3PY        -0.00894   0.00197  -0.00162   0.02760  -0.00386
  72        3PZ         0.00519  -0.01378  -0.01848   0.02895   0.01127
  73        4S         -0.00872   0.00296   0.00572   0.01067   0.01027
  74        4PX         0.00154  -0.00031   0.00919  -0.00411  -0.00069
  75        4PY        -0.00164   0.00508  -0.00405   0.00728   0.00506
  76        4PZ         0.00210  -0.00172   0.00229   0.00625   0.00295
  77        5XX         0.00594   0.00597  -0.00619   0.00130   0.00736
  78        5YY         0.00135   0.00902  -0.00351   0.00169   0.00263
  79        5ZZ        -0.00363  -0.00784   0.00339  -0.00549   0.00238
  80        5XY        -0.00058   0.00112  -0.00280   0.00477   0.00185
  81        5XZ         0.00087  -0.00028   0.00698  -0.00033   0.00046
  82        5YZ         0.00433   0.01251  -0.00759  -0.00063  -0.00122
  83 8   O  1S          0.31699  -0.09074   0.08327   0.06746  -0.15768
  84        2S         -0.09658  -0.06175   0.13263  -0.04266  -0.05527
  85        2PX         0.01876  -0.00442   0.15377   0.00090   0.01381
  86        2PY        -0.06614  -0.10933   0.00200   0.03621  -0.02134
  87        2PZ         0.00940   0.12172  -0.04075   0.12374   0.01917
  88        3S         -0.09453  -0.00355   0.12890  -0.01039  -0.04544
  89        3PX         0.01153  -0.00355   0.09306  -0.00249   0.00693
  90        3PY        -0.03521  -0.04781  -0.00362   0.03262  -0.00655
  91        3PZ        -0.00296   0.04417  -0.01453   0.05642   0.00565
  92        4S          0.00004   0.02826  -0.00306   0.01402   0.00659
  93        4PX         0.00104  -0.00090   0.00885  -0.00468  -0.00141
  94        4PY        -0.00463  -0.00444  -0.00017   0.00882   0.00311
  95        4PZ        -0.00325   0.00237  -0.00077   0.00301  -0.00226
  96        5XX        -0.00008   0.00341  -0.00288   0.00097   0.00257
  97        5YY        -0.00415  -0.00068  -0.00353   0.00498   0.00088
  98        5ZZ        -0.00087  -0.00328   0.00059  -0.00940   0.00076
  99        5XY         0.00076  -0.00003   0.00663   0.00089   0.00096
 100        5XZ        -0.00101   0.00010  -0.00869  -0.00088  -0.00115
 101        5YZ         0.00429   0.00697  -0.00236   0.00170   0.00261
 102 9   N  1S          0.53305  -0.25360  -0.10115   0.01337   0.00573
 103        2S         -0.02942   0.16266  -0.05024   0.07501   0.03200
 104        2PX         0.00126   0.01832   0.04897   0.09248   0.04508
 105        2PY         0.02611   0.06458  -0.01831  -0.03884   0.09663
 106        2PZ        -0.01297   0.12988  -0.03892  -0.13341  -0.09503
 107        3S         -0.03680   0.19464  -0.05272   0.07416   0.03785
 108        3PX        -0.00007   0.01379   0.02639   0.06853   0.03269
 109        3PY         0.01051   0.03172  -0.01009  -0.02060   0.04834
 110        3PZ        -0.01139   0.07125  -0.01791  -0.07860  -0.05678
 111        4S          0.01149   0.00170  -0.00069  -0.01233  -0.01244
 112        4PX        -0.00257   0.00238  -0.00449   0.01453   0.00489
 113        4PY        -0.00296   0.00432   0.00004  -0.00211   0.00588
 114        4PZ        -0.00431   0.00507  -0.00188  -0.01184  -0.00916
 115        5XX        -0.00191  -0.00516   0.00268  -0.00328  -0.00180
 116        5YY        -0.00725   0.00002   0.00225  -0.00029  -0.00167
 117        5ZZ        -0.00469   0.01076  -0.00167   0.00115   0.00430
 118        5XY        -0.00039  -0.00019  -0.00381  -0.00132  -0.00093
 119        5XZ         0.00004  -0.00008   0.00018  -0.00027  -0.00011
 120        5YZ         0.00077   0.00675  -0.00134  -0.00723  -0.00413
 121 10  H  1S         -0.00068  -0.01558   0.02503  -0.05880  -0.00924
 122        2S          0.00501   0.00604   0.00229  -0.02346   0.00473
 123 11  H  1S         -0.00342   0.00532  -0.00131   0.07840   0.08545
 124        2S         -0.00405  -0.02685   0.00565   0.02286   0.02484
 125 12  H  1S         -0.01245   0.13696  -0.03776  -0.05749  -0.01117
 126        2S          0.00258   0.02876  -0.00683  -0.02686  -0.00318
                          21        22        23        24        25
     Eigenvalues --     2.00000   2.00000   2.00000   2.00000   0.00000
   1 1   C  1S         -0.13702   0.02504   0.08698   0.52543  -0.02898
   2        2S          0.15884   0.01963  -0.05492   0.04744   0.83151
   3        2PX         0.03403  -0.00151  -0.03960   0.03726  -0.07031
   4        2PY         0.07801   0.04322  -0.03083  -0.03381   0.24498
   5        2PZ         0.01082   0.22741   0.09365   0.00147  -0.07130
   6        3S          0.14769  -0.00619  -0.10355   0.01233  -2.50867
   7        3PX         0.00249   0.00680  -0.02073   0.01609   0.22042
   8        3PY        -0.01244  -0.00550  -0.01288   0.00392  -0.64579
   9        3PZ        -0.02524   0.06413  -0.01475   0.00297  -0.40687
  10        4S         -0.02573  -0.01813  -0.02477   0.01208  -8.04087
  11        4PX        -0.00631   0.00131  -0.00249   0.00372  -1.32455
  12        4PY         0.00208   0.00696  -0.02289   0.00435  -0.66780
  13        4PZ        -0.01231  -0.00141  -0.00800   0.00238  -2.17109
  14        5XX        -0.00530  -0.00108   0.00028  -0.00607   0.00774
  15        5YY        -0.00894  -0.00842  -0.00057  -0.00407  -0.38251
  16        5ZZ         0.00770   0.00298   0.00117  -0.00373  -0.22883
  17        5XY         0.01967  -0.01115   0.00575  -0.00055   0.06707
  18        5XZ         0.00831  -0.00396   0.00030   0.00142  -0.03981
  19        5YZ         0.01114  -0.00018   0.01689  -0.00510  -0.07728
  20 2   O  1S          0.10018  -0.02242  -0.30002   0.28177   0.09584
  21        2S         -0.22111  -0.07042   0.16320   0.03128   0.11186
  22        2PX        -0.14463   0.09577  -0.08032   0.03320   0.00696
  23        2PY         0.10820   0.05474  -0.12060   0.04239   0.01212
  24        2PZ        -0.10886   0.18336  -0.14802   0.03779   0.13343
  25        3S         -0.28799  -0.08498   0.19991   0.01643  -1.12338
  26        3PX        -0.09968   0.06437  -0.05068   0.01933  -0.00812
  27        3PY         0.04660   0.03022  -0.07082   0.01747   0.49478
  28        3PZ        -0.06818   0.10483  -0.10476   0.02669  -0.25369
  29        4S         -0.03016  -0.00989  -0.00630  -0.00283   2.44944
  30        4PX        -0.02623   0.01524  -0.00760   0.00003   0.25193
  31        4PY        -0.00639  -0.00432  -0.01173   0.00290  -0.44305
  32        4PZ        -0.00906   0.01153  -0.02730   0.00479   0.34850
  33        5XX         0.00025   0.00042   0.00190  -0.00307   0.24370
  34        5YY         0.00833   0.00622  -0.00431   0.00016   0.46127
  35        5ZZ         0.00227  -0.00217   0.00235  -0.00347   0.18820
  36        5XY        -0.00591   0.00447  -0.00491   0.00265  -0.10232
  37        5XZ         0.00137  -0.00093   0.00079  -0.00035   0.00720
  38        5YZ        -0.00555   0.01211  -0.00505   0.00120  -0.02399
  39 3   N  1S          0.05121  -0.00511  -0.11152   0.55885   0.03985
  40        2S          0.04564  -0.06057   0.01345   0.01193   0.08222
  41        2PX         0.28659  -0.14269   0.02887   0.03430   0.04307
  42        2PY        -0.17732  -0.22819  -0.27608  -0.01380  -0.06447
  43        2PZ        -0.05767  -0.08092   0.17441   0.03772  -0.06999
  44        3S          0.04880  -0.08577   0.08276  -0.01775  -0.04468
  45        3PX         0.22263  -0.11223   0.02686   0.02320  -0.08464
  46        3PY        -0.08890  -0.11564  -0.16345  -0.00648  -0.12675
  47        3PZ        -0.02484  -0.03482   0.08554   0.02572  -0.46151
  48        4S          0.02452   0.01283   0.05847  -0.01379   8.52792
  49        4PX         0.04687  -0.02510   0.00867   0.00195   0.29101
  50        4PY        -0.00870  -0.02067  -0.01858  -0.00098  -1.10649
  51        4PZ         0.00239  -0.00233   0.00040   0.00458  -0.69265
  52        5XX        -0.00183   0.00349   0.00207  -0.00443  -0.00592
  53        5YY        -0.00633  -0.00445  -0.01190  -0.00478   0.12656
  54        5ZZ         0.00373  -0.00276   0.00929  -0.00314   0.14001
  55        5XY         0.00013  -0.00042   0.00105  -0.00079  -0.02458
  56        5XZ        -0.00189   0.00065   0.00063  -0.00087   0.06456
  57        5YZ         0.00510   0.00628  -0.00080  -0.00005   0.01265
  58 4   H  1S          0.05050  -0.08252  -0.09125   0.01045  -0.11658
  59        2S         -0.00729  -0.03990  -0.08551   0.01448   0.76419
  60 5   H  1S         -0.08243  -0.12865  -0.17577  -0.01225   0.14056
  61        2S         -0.04292  -0.02471  -0.08355   0.00190  -0.88541
  62 6   H  1S          0.01072  -0.03282   0.13984   0.02066   0.22361
  63        2S         -0.00598  -0.01644   0.02651   0.00760  -0.71857
  64 7   C  1S          0.11929   0.06109  -0.09343  -0.34227  -0.02946
  65        2S         -0.07640  -0.01887  -0.01696  -0.02066   0.38578
  66        2PX        -0.06197   0.03996  -0.00062  -0.01505   0.00706
  67        2PY         0.03444  -0.16113   0.17508   0.01194  -0.18279
  68        2PZ        -0.01545   0.00669   0.00305  -0.00089   0.37989
  69        3S         -0.07934   0.03995  -0.05906  -0.00411   2.04817
  70        3PX        -0.01625   0.01866  -0.00028  -0.00579   0.15917
  71        3PY        -0.01072  -0.02359   0.01528   0.00223   0.64724
  72        3PZ         0.00342  -0.01403   0.00350  -0.00180   0.77287
  73        4S         -0.00645   0.02141  -0.03556  -0.00353   7.54375
  74        4PX        -0.00083   0.00016   0.00329  -0.00037  -1.25436
  75        4PY        -0.00466   0.00326  -0.01246  -0.00245   2.66724
  76        4PZ         0.00637  -0.00357   0.00326   0.00076   1.29312
  77        5XX         0.00345   0.00113   0.00153   0.00301  -0.23744
  78        5YY         0.00891  -0.00813   0.01219   0.00317   0.12212
  79        5ZZ        -0.00914   0.00593  -0.01073   0.00179   0.05820
  80        5XY        -0.01567  -0.00075  -0.00093  -0.00127  -0.01752
  81        5XZ         0.00466   0.00220   0.00044  -0.00008   0.02471
  82        5YZ         0.00057   0.00799   0.00199  -0.00017  -0.20605
  83 8   O  1S          0.00326   0.00028  -0.04206   0.01352  -0.08445
  84        2S          0.00441  -0.00956   0.02282   0.01821   0.06259
  85        2PX         0.07749   0.04864   0.00810  -0.00416   0.04343
  86        2PY        -0.11924   0.00010  -0.08656  -0.01547  -0.12704
  87        2PZ         0.02661  -0.08358   0.08840   0.01227  -0.04727
  88        3S          0.03512  -0.04535   0.06998   0.02718   0.13140
  89        3PX         0.05721   0.02934   0.00553  -0.00158  -0.12030
  90        3PY        -0.06681  -0.00876  -0.04640  -0.00817  -0.47740
  91        3PZ         0.00013  -0.03193   0.02863   0.00429   0.98360
  92        4S          0.00783  -0.01599   0.01003  -0.00051  -1.46207
  93        4PX         0.01939   0.00285   0.00096   0.00129   0.26990
  94        4PY        -0.01030  -0.00263  -0.01222  -0.00228  -0.05290
  95        4PZ        -0.00633  -0.00436   0.00274   0.00106  -1.04669
  96        5XX         0.00158  -0.00041   0.00142  -0.00026  -0.21117
  97        5YY        -0.00370  -0.00292   0.00023  -0.00068  -0.34320
  98        5ZZ        -0.00061   0.00719  -0.00516  -0.00087  -0.57104
  99        5XY         0.00083   0.00212   0.00019  -0.00042   0.04568
 100        5XZ        -0.00178  -0.00278  -0.00030   0.00048  -0.01621
 101        5YZ         0.00489  -0.00047   0.00312   0.00046   0.22320
 102 9   N  1S         -0.00276  -0.06932  -0.01017  -0.37396  -0.10126
 103        2S          0.06846  -0.05550  -0.00344  -0.02990  -0.00216
 104        2PX        -0.25235   0.01825  -0.01312  -0.02748   0.05430
 105        2PY         0.02788   0.14478  -0.19742  -0.02238   0.01384
 106        2PZ         0.02397   0.26651   0.01790   0.00201   0.01512
 107        3S          0.10485  -0.05763   0.01894  -0.01668   0.80890
 108        3PX        -0.19207   0.01009  -0.01026  -0.02022  -0.06561
 109        3PY         0.00498   0.08122  -0.11201  -0.01335   0.84554
 110        3PZ         0.00901   0.15227   0.00766   0.00141  -0.41454
 111        4S          0.02180  -0.01688   0.04577   0.00448  -8.45390
 112        4PX        -0.04016   0.00031  -0.00344  -0.00299   0.18304
 113        4PY        -0.00215   0.00810  -0.01732  -0.00216   1.06213
 114        4PZ        -0.00452   0.01810  -0.00121   0.00019  -1.03627
 115        5XX        -0.00228   0.00256   0.00157   0.00388  -0.24862
 116        5YY        -0.00245  -0.00170   0.00009   0.00300  -0.53628
 117        5ZZ         0.00335   0.00458  -0.00675   0.00164  -0.20773
 118        5XY         0.00201  -0.00124   0.00004   0.00048   0.04540
 119        5XZ         0.00101   0.00002   0.00005   0.00008  -0.00189
 120        5YZ         0.00113   0.01162   0.00113   0.00025  -0.06569
 121 10  H  1S         -0.04077   0.04025  -0.05728  -0.00535   0.16271
 122        2S         -0.03163   0.03803  -0.05286  -0.00594  -0.29585
 123 11  H  1S          0.01468  -0.10116  -0.07369  -0.01377  -0.13858
 124        2S         -0.01637  -0.02869  -0.03536  -0.00334  -0.31966
 125 12  H  1S          0.03967   0.15848  -0.04795  -0.01041  -0.18182
 126        2S          0.00178   0.05922  -0.02301  -0.00185   1.11924
                          26        27        28        29        30
     Eigenvalues --     0.00000   0.00000   0.00000   0.00000   0.00000
   1 1   C  1S         -0.02181   0.01869  -0.18817   0.06019  -0.07610
   2        2S          0.17424   1.05149   0.53950  -0.69253  -0.02298
   3        2PX        -0.00702   0.06613   0.06502  -0.11479  -0.05869
   4        2PY        -0.27802  -0.30351   0.29988   0.24793   0.40549
   5        2PZ        -0.16346   0.12061  -0.21713  -0.09636  -0.20417
   6        3S          0.02559  -0.77745   2.21483  -0.22527  -1.28728
   7        3PX        -0.02300  -0.21069  -0.24977   0.43794  -0.20475
   8        3PY         0.37216   0.10419  -0.75190  -0.38298   1.20663
   9        3PZ         0.30375  -0.32187   1.03935   0.72672   0.69204
  10        4S         -0.01173   0.73658   3.94750   0.22815   0.04044
  11        4PX        -0.01338   1.17186   0.81964   0.21188   0.66211
  12        4PY        -0.31792  -0.28340   0.55181   0.06299   0.67533
  13        4PZ        -0.06970   1.00378   1.23432  -0.09500   0.32999
  14        5XX        -0.02553  -0.24229  -0.48903   0.28954  -0.02064
  15        5YY        -0.24517   0.40565  -0.65035   0.21215  -0.67273
  16        5ZZ        -0.05238  -0.24165  -0.60574   0.11914  -0.07537
  17        5XY        -0.03540   0.11511   0.06671  -0.01342  -0.01460
  18        5XZ        -0.00727  -0.06399   0.05641   0.11029  -0.05077
  19        5YZ         0.00879   0.08507   0.08227   0.07592  -0.08604
  20 2   O  1S          0.03365  -0.06505   0.03756   0.00935  -0.06787
  21        2S          0.06712  -0.11521   0.03614  -0.46942   0.02742
  22        2PX         0.06927  -0.07749   0.01231   0.12952  -0.15615
  23        2PY         0.08973   0.03838   0.11274   0.10486  -0.03902
  24        2PZ         0.00359  -0.09666   0.02581   0.12406   0.06357
  25        3S         -0.21284   0.67985  -0.72575   0.54817   1.26305
  26        3PX        -0.16132   0.38106   0.07407  -0.22870   0.52648
  27        3PY        -0.21974  -0.70229  -0.02074  -0.00740   1.26995
  28        3PZ         0.05448   0.59690  -0.04220  -0.25480  -0.57401
  29        4S          0.08390  -0.33017  -1.69442  -0.13792   2.18784
  30        4PX         0.18829  -0.63417  -0.13242  -0.20836  -0.65481
  31        4PY         0.27399   0.64054  -0.67311   0.15741   0.38874
  32        4PZ        -0.19070  -0.74025  -0.23619  -0.20077  -0.01212
  33        5XX         0.18461  -0.05659   0.05458  -0.19060  -0.36416
  34        5YY         0.06806  -0.73799   0.35312   0.19889   0.39932
  35        5ZZ         0.13659  -0.14270   0.06543  -0.12835  -0.26483
  36        5XY        -0.04927  -0.07963  -0.05733  -0.02673   0.02218
  37        5XZ         0.01485  -0.06600   0.03300   0.04513   0.02210
  38        5YZ        -0.06350   0.18452  -0.14965  -0.14040  -0.17984
  39 3   N  1S         -0.00912  -0.09222  -0.03211  -0.00097   0.01930
  40        2S         -0.19635   0.16714  -0.17453  -0.12933  -0.08048
  41        2PX        -0.01458  -0.08004   0.03703   0.15405  -0.08453
  42        2PY        -0.03958   0.04638  -0.12493   0.02884  -0.11817
  43        2PZ         0.10381  -0.16456  -0.00460   0.01537   0.03020
  44        3S          0.15719   1.02992   0.62245   0.13035  -0.29702
  45        3PX         0.06485   0.36104  -0.04087  -0.40984   0.40036
  46        3PY         0.11091  -0.06129   0.99237   0.11617   0.22457
  47        3PZ        -0.39539   0.65357  -0.27053  -0.05174  -0.14325
  48        4S         -0.23085  -0.49165  -3.44995   0.07733  -1.82785
  49        4PX        -0.06871  -0.83871  -0.10244   0.07450  -0.61909
  50        4PY         0.32049   0.15442   0.52626   0.00294   0.76836
  51        4PZ         0.01759  -0.42326   0.28391  -0.21327   0.25875
  52        5XX        -0.10322  -0.31413  -0.10509  -0.04007   0.06226
  53        5YY        -0.00911  -0.32992  -0.09751  -0.15691   0.01844
  54        5ZZ         0.09200  -0.31180  -0.01224   0.16237   0.09560
  55        5XY        -0.04427  -0.03909  -0.01835   0.06984  -0.10211
  56        5XZ        -0.01911  -0.06961  -0.02272   0.11412   0.05385
  57        5YZ         0.06246  -0.10211   0.00173  -0.06156   0.12686
  58 4   H  1S         -0.00385  -0.03322   0.09530   0.55847   0.14980
  59        2S         -0.02557  -0.08973   0.14909  -0.27322   0.29719
  60 5   H  1S          0.02973   0.06457  -0.09666   0.15833   0.11122
  61        2S         -0.35951  -0.28118  -0.83974  -0.32809  -0.36529
  62 6   H  1S         -0.07939  -0.02068   0.16772  -0.09621   0.04983
  63        2S          0.51568  -0.47827   0.24916   0.05874   0.38111
  64 7   C  1S         -0.00301  -0.06124  -0.03061   0.00028   0.11385
  65        2S         -0.09405   0.23688   1.07927  -0.48891  -0.46319
  66        2PX        -0.13773  -0.00877   0.15810  -0.02630   0.02599
  67        2PY        -0.66732   0.42250  -0.17825  -0.01438   0.32819
  68        2PZ         0.15622  -0.13580   0.37590  -0.11203  -0.35737
  69        3S         -0.05110   0.57994  -0.08483   1.06343  -3.28157
  70        3PX         0.44087  -0.04981  -0.13761   0.28923   0.17618
  71        3PY         1.19674   0.26235  -0.85088  -0.27331  -0.50634
  72        3PZ        -0.10676  -0.23075   0.46807   0.59357  -0.24731
  73        4S         -0.36310  -0.76751  -4.31412  -0.42686   0.34168
  74        4PX        -0.10464   0.24599   0.32722   0.16767  -1.00212
  75        4PY        -0.17669   0.62391  -0.38091   0.56820   0.52044
  76        4PZ         0.29669  -0.27422  -1.31826  -0.35954   0.56900
  77        5XX         0.09359  -0.19443  -0.32843   0.00447   0.69475
  78        5YY        -0.11420   0.01569  -0.05901  -0.16708   0.26856
  79        5ZZ        -0.18024  -0.30217  -0.20171   0.18948   0.22272
  80        5XY        -0.03981   0.03055   0.11864  -0.10871   0.04229
  81        5XZ         0.05230   0.00862   0.00633   0.03729   0.09925
  82        5YZ         0.12721   0.11236  -0.22366  -0.11964   0.18267
  83 8   O  1S          0.08640   0.10807  -0.05878   0.10143  -0.01439
  84        2S         -0.02748  -0.02107   0.36931  -0.43409  -0.10075
  85        2PX         0.06388   0.09033   0.08675   0.15874  -0.02236
  86        2PY        -0.03158  -0.06638  -0.01123  -0.01110  -0.08635
  87        2PZ        -0.05030   0.03396   0.06738  -0.01412   0.04831
  88        3S         -0.28437  -0.75693  -0.95619  -0.71747   0.85539
  89        3PX        -0.24425  -0.04076  -0.11431  -0.40119  -0.26213
  90        3PY         0.08434   0.48604  -0.25059  -0.14667   0.85812
  91        3PZ         0.08195  -0.31035   0.74084   0.15574  -0.72209
  92        4S         -0.01878   0.52955   1.39951   0.33077   0.44792
  93        4PX        -0.00337  -0.01795  -0.02614   0.12813   0.56190
  94        4PY        -0.58763  -0.74435  -0.33139  -0.19922  -0.32310
  95        4PZ        -0.33376   0.08104   0.02227  -0.02764  -0.26028
  96        5XX         0.38841   0.31733  -0.08479   0.16715  -0.18566
  97        5YY         0.15061   0.47619  -0.39509   0.13126   0.02513
  98        5ZZ         0.33293   0.44894  -0.45315   0.37235   0.17440
  99        5XY         0.01322  -0.07205   0.09867  -0.07215   0.05873
 100        5XZ         0.00848   0.01348   0.01151   0.11522  -0.03577
 101        5YZ         0.12870  -0.15551   0.42941  -0.02961  -0.35845
 102 9   N  1S         -0.01808   0.00357  -0.05053   0.03209  -0.05700
 103        2S         -0.48224   0.25563   0.25327  -0.07693  -0.00511
 104        2PX         0.07877   0.01185   0.03511   0.01030   0.01305
 105        2PY         0.00171  -0.03713  -0.04482  -0.14695  -0.01767
 106        2PZ         0.15128   0.10731   0.07877  -0.04065  -0.07326
 107        3S          0.30655  -0.59810   0.23310  -0.22729   1.52170
 108        3PX        -0.26473  -0.03174  -0.19348   0.05406  -0.21382
 109        3PY        -0.09733   0.77366   0.01402   0.14125  -0.29390
 110        3PZ        -0.46892  -0.10018  -0.22750  -0.11182  -0.27390
 111        4S          0.39725   0.84894   3.57855  -0.25092   0.15974
 112        4PX         0.09141   0.08077   0.27771  -0.33965   0.56241
 113        4PY        -0.25067  -0.52994  -1.03662  -0.34340  -0.55906
 114        4PZ        -0.27263  -0.00454   1.00038   0.19312  -0.48756
 115        5XX        -0.29734   0.03011  -0.15287   0.11763  -0.18845
 116        5YY         0.26869  -0.19880  -0.19107   0.22849  -0.14946
 117        5ZZ        -0.10963  -0.03121  -0.17287   0.03536  -0.10335
 118        5XY         0.05881   0.08291  -0.04296   0.01547  -0.05810
 119        5XZ         0.00128  -0.02256  -0.06410  -0.02766   0.08267
 120        5YZ         0.09802  -0.02842  -0.02294  -0.03998   0.05226
 121 10  H  1S          0.13269   0.09217  -0.10587   0.23699   0.08721
 122        2S         -0.05820  -0.38359   0.22176  -0.30732   0.17023
 123 11  H  1S          0.03465   0.14587  -0.21719  -0.02686   0.06442
 124        2S         -0.71672  -0.67128   0.35777   0.15148  -0.87329
 125 12  H  1S         -0.32672   0.02037   0.12758   0.12197  -0.05178
 126        2S          0.87976  -0.09188  -0.53597  -0.05976   0.32502
                          31        32        33        34        35
     Eigenvalues --     0.00000   0.00000   0.00000   0.00000   0.00000
   1 1   C  1S          0.01055   0.14581  -0.03994   0.06426  -0.09485
   2        2S          0.74388  -0.47152   0.60601   0.39150   0.54393
   3        2PX        -0.03993  -0.17257  -0.01211   0.03604   0.13641
   4        2PY        -0.47505   0.00471   0.11853  -0.00840  -0.04726
   5        2PZ         0.17225   0.09930   0.02856  -0.05436  -0.01571
   6        3S         -1.23111  -2.31768  -0.12768  -4.17472   1.88083
   7        3PX         0.17454   0.12981  -0.20220  -0.04430  -0.15925
   8        3PY         0.76983   1.89545   0.37400  -1.54915  -0.90795
   9        3PZ         0.21869  -0.26808   0.27670  -2.02687   0.91265
  10        4S          0.33670  -2.63719   0.66274   0.38047  -0.57509
  11        4PX        -0.38257  -0.08062   0.08222   0.32695  -0.28754
  12        4PY         0.96440   1.03555   0.29998  -0.04316  -0.06510
  13        4PZ         0.58995  -0.54557   0.32715   0.38341   0.01741
  14        5XX        -0.03877   0.60812  -0.10695   0.19665  -0.26487
  15        5YY         0.44325   0.59535  -0.49657  -0.04469  -0.20816
  16        5ZZ        -0.07410   0.46480  -0.05597  -0.14996  -0.29732
  17        5XY        -0.12603   0.10424   0.11885   0.05878   0.08406
  18        5XZ         0.06390   0.03132  -0.13538   0.10932   0.01204
  19        5YZ         0.04578   0.14777   0.06498  -0.25764  -0.00817
  20 2   O  1S         -0.18834   0.02625  -0.13324   0.01906  -0.10068
  21        2S         -0.35254   0.09817   0.13052   0.00421   0.26130
  22        2PX         0.09786  -0.05594  -0.08694  -0.07322  -0.06802
  23        2PY        -0.30336  -0.20126   0.25271  -0.03049  -0.09778
  24        2PZ        -0.04038   0.00159  -0.10314  -0.19555  -0.05925
  25        3S          2.20497   0.13864   1.25743   0.00825  -0.23108
  26        3PX        -0.26289   0.15221   0.04497   0.00903   0.07017
  27        3PY         0.06607   0.86653  -0.26369   0.33023  -0.56619
  28        3PZ         0.29722  -0.08353   0.18007   0.50256  -0.10114
  29        4S          1.34401   3.77187  -0.58398   0.48230  -1.10336
  30        4PX         0.23353  -0.14603   0.19440  -0.10492   0.11344
  31        4PY         0.37848   0.49527   0.34753   0.49031  -0.41265
  32        4PZ        -0.64752  -0.24430  -0.69566   0.26382   0.07746
  33        5XX        -0.64483   0.05281  -0.52671   0.10588  -0.36927
  34        5YY        -1.10786   0.14140  -0.21006   0.17666  -0.40876
  35        5ZZ        -0.67094   0.09083  -0.45224   0.08593  -0.37091
  36        5XY        -0.00705  -0.00784   0.13651   0.14862   0.09604
  37        5XZ         0.02225  -0.02239  -0.13714   0.09065   0.03912
  38        5YZ         0.09117  -0.11170  -0.13463   0.03977  -0.02587
  39 3   N  1S         -0.01724   0.04781   0.02681  -0.19780   0.04450
  40        2S          0.02717   0.18711   0.39179  -0.57094  -0.40630
  41        2PX         0.12690  -0.12238  -0.18040  -0.14654  -0.10981
  42        2PY        -0.17386   0.11564  -0.01543  -0.09226  -0.03787
  43        2PZ         0.10967  -0.01983  -0.02707   0.08895  -0.16796
  44        3S          0.21568  -1.16212  -1.26947   5.19447  -0.05489
  45        3PX        -0.31839   0.11781   0.11126   0.04295   0.19081
  46        3PY         1.00773  -0.04413  -0.05097  -1.02748   0.60347
  47        3PZ        -0.01075   0.55708   0.44442  -1.65465   0.52695
  48        4S         -1.24127   1.22212   0.00088  -0.15963   0.60226
  49        4PX         0.46603  -0.04325   0.19708  -0.05558  -0.10580
  50        4PY        -0.06199  -0.97283  -0.80210   0.92838  -0.32960
  51        4PZ        -0.15639   0.40772   0.22407  -0.42367  -0.43815
  52        5XX         0.03830   0.16793   0.11106  -0.55073  -0.03102
  53        5YY         0.05279  -0.02313  -0.22320  -0.39225   0.19632
  54        5ZZ        -0.31409   0.02221   0.27396  -0.43675   0.07493
  55        5XY        -0.02022  -0.01393  -0.00593  -0.07441  -0.01935
  56        5XZ         0.11858  -0.08244  -0.00125   0.06598  -0.11664
  57        5YZ        -0.18759  -0.07082   0.07753   0.17175  -0.31266
  58 4   H  1S          0.07409  -0.05340   0.13863   0.15949   0.39265
  59        2S         -0.11217  -0.32786  -0.29417  -0.17069   0.07243
  60 5   H  1S         -0.12160  -0.03957   0.12491  -0.04715  -0.18040
  61        2S         -0.95358   0.50431   0.75900  -1.19455  -0.01542
  62 6   H  1S         -0.02731   0.12964   0.02419  -0.10924  -0.20032
  63        2S          0.50762  -0.60383  -0.63795   0.30896  -0.13213
  64 7   C  1S          0.05512  -0.00462   0.01013  -0.05521  -0.01769
  65        2S         -0.20405  -0.47842   0.18826  -0.40207  -0.31540
  66        2PX         0.06711  -0.10299   0.03130   0.01929  -0.07557
  67        2PY        -0.20689  -0.07385  -0.15541   0.09664  -0.07766
  68        2PZ         0.08185  -0.08194   0.15361   0.00283  -0.10724
  69        3S         -1.47207   1.73717   1.15298   2.59874  -0.25778
  70        3PX        -0.14380   0.14199  -0.01690   0.08883   0.08082
  71        3PY        -0.59514  -0.08286   0.10654   2.00213  -0.22932
  72        3PZ         0.33811   0.64464   1.10932  -0.06470  -0.97410
  73        4S         -0.55707   2.27567  -0.39363   0.65499   1.23731
  74        4PX         0.36721  -0.38852   0.14350  -0.01101  -0.16143
  75        4PY        -0.09977   0.51315  -0.30973  -0.06600  -0.15351
  76        4PZ        -0.00185  -0.23492   0.17362   0.00886   0.09101
  77        5XX         0.18360   0.05514  -0.16091  -0.10479   0.18324
  78        5YY         0.16659   0.10578  -0.24818   0.16642  -0.12158
  79        5ZZ         0.30524  -0.15533   0.08280  -0.07826  -0.14649
  80        5XY         0.04421   0.01407  -0.09146  -0.02928  -0.07149
  81        5XZ        -0.02021  -0.02193   0.12298  -0.04382  -0.10470
  82        5YZ        -0.09961   0.05834  -0.06120   0.01541   0.12580
  83 8   O  1S         -0.06110   0.11028   0.01003  -0.11867  -0.14745
  84        2S         -0.27356   0.19788   0.49589  -0.37674  -0.07503
  85        2PX        -0.14793  -0.11702   0.07631  -0.03060   0.10722
  86        2PY        -0.08930   0.12608   0.11347  -0.01636  -0.01577
  87        2PZ         0.07054   0.09099   0.02814   0.06033  -0.04822
  88        3S          0.87203  -1.71624  -1.54398   1.97175   2.10161
  89        3PX         0.35392   0.11667  -0.26015  -0.09791  -0.07406
  90        3PY         0.13341  -0.15189  -0.64366  -0.08576   0.34838
  91        3PZ         0.11722   0.16096   0.34543  -0.27808  -0.25217
  92        4S         -0.11093  -0.31788  -0.56991  -1.41040  -1.54046
  93        4PX        -0.46088   0.02617   0.20824   0.08414   0.07464
  94        4PY        -0.16472  -0.08841  -0.20522  -0.55234  -0.09312
  95        4PZ         0.00066   0.10592   0.01292   0.12416   0.32082
  96        5XX        -0.26438   0.37500   0.06388  -0.45694  -0.47418
  97        5YY        -0.28314   0.14151  -0.02329  -0.49579  -0.49898
  98        5ZZ        -0.35014   0.62122   0.07667  -0.33698  -0.27927
  99        5XY        -0.00854   0.07487  -0.00678   0.10881  -0.08184
 100        5XZ        -0.07502   0.06053   0.06914  -0.01534   0.10980
 101        5YZ        -0.06055   0.20822   0.07434   0.02021  -0.04057
 102 9   N  1S         -0.02195   0.00789   0.03287   0.14386  -0.02139
 103        2S         -0.17644  -0.21553   0.22689   0.40294  -0.29327
 104        2PX         0.06314  -0.06065  -0.03672  -0.04097  -0.01836
 105        2PY        -0.00173  -0.11389  -0.16880   0.03167   0.03064
 106        2PZ        -0.02839  -0.00480  -0.08342  -0.07054  -0.05426
 107        3S          1.13866   0.18065  -1.45367  -3.69964   1.08013
 108        3PX        -0.08050   0.03530   0.09857  -0.02805   0.09201
 109        3PY        -0.66849   0.13801   0.06434   1.27940  -0.27914
 110        3PZ        -0.33863  -0.07606   0.00364   0.50047   0.77687
 111        4S          0.40991  -2.75098   0.06496  -0.62530   0.23892
 112        4PX         0.00365   0.08181  -0.11740   0.06077  -0.06851
 113        4PY        -0.04467   0.58784  -0.40865  -0.33228  -0.06237
 114        4PZ         0.08746   0.25417   0.04285   0.66274   0.43634
 115        5XX        -0.05053   0.03526   0.06127   0.50226  -0.03342
 116        5YY         0.04132   0.05477   0.08380   0.13430   0.04972
 117        5ZZ        -0.03578   0.06677   0.18336   0.42043  -0.02018
 118        5XY        -0.07119  -0.12331  -0.05499   0.00982   0.10998
 119        5XZ         0.12306  -0.15741   0.18954   0.04719  -0.14860
 120        5YZ        -0.07114   0.17680   0.00629  -0.04182   0.11250
 121 10  H  1S         -0.08010  -0.20413   0.08310  -0.13624  -0.06687
 122        2S          0.74814   0.06834   0.58431   0.20776  -0.70789
 123 11  H  1S          0.05382  -0.01865  -0.30041  -0.00225   0.04005
 124        2S         -0.28544   0.40138   1.20989   1.14670   0.28560
 125 12  H  1S          0.12610   0.13385  -0.15517   0.06672  -0.13239
 126        2S          0.18641  -0.10690   0.66222  -0.19423  -1.07989
                          36        37        38        39        40
     Eigenvalues --     0.00000   0.00000   0.00000   0.00000   0.00000
   1 1   C  1S          0.09675  -0.07522   0.10998   0.06894  -0.15974
   2        2S         -0.48557   0.76672  -0.95188  -0.52159   0.69858
   3        2PX         0.00328   0.02093   0.01324   0.04214  -0.00464
   4        2PY         0.02266  -0.00229  -0.06245   0.18133   0.15558
   5        2PZ        -0.01462  -0.02904   0.15953  -0.16735   0.23084
   6        3S         -1.67089  -0.30489  -0.16426  -0.41169   1.13419
   7        3PX        -0.14952   0.01667   0.13961  -0.14050   0.03268
   8        3PY         0.24885   0.14567   1.07429  -0.46950  -0.11741
   9        3PZ        -0.46599   0.76906   0.13806   1.03461  -1.16595
  10        4S         -0.23372  -0.50300  -1.07534   0.16839  -0.52484
  11        4PX        -0.31567  -0.29347  -0.24060   0.48070  -0.05968
  12        4PY        -0.30946   0.09232   0.54017  -0.13389   0.84092
  13        4PZ         0.50220  -0.31885  -0.22074  -0.39664  -0.53993
[...]
 Thermal correction to Gibbs Free Energy=         0.057134
 Sum of electronic and zero-point Energies=           -339.595699
 Sum of electronic and thermal Energies=              -339.589235
 Sum of electronic and thermal Enthalpies=            -339.588291
 Sum of electronic and thermal Free Energies=         -339.630759
 
                     E (Thermal)             CV                S
                      KCal/Mol        Cal/Mol-Kelvin    Cal/Mol-Kelvin
 Total                   61.909             19.468             89.383
 Electronic               0.000              0.000              0.000
 Translational            0.889              2.981             39.405
 Rotational               0.889              2.981             28.956
 Vibrational             60.132             13.506             21.021
 Vibration     1          0.593              1.987              8.886
 Vibration     2          0.593              1.985              6.224
 Vibration     3          0.639              1.837              2.113
 Vibration     4          0.671              1.739              1.635
 Vibration     5          0.930              1.088              0.497
 Vibration     6          0.932              1.084              0.494
                       Q            Log10(Q)             Ln(Q)
 Total Bot       0.524900D-26        -26.279923        -60.511759
 Total V=0       0.133830D+17         16.126554         37.132762
 Vib (Bot)       0.328993D-39        -39.482813        -90.912537
 Vib (Bot)    1  0.321872D+02          1.507683          3.471568
 Vib (Bot)    2  0.842307D+01          0.925470          2.130974
 Vib (Bot)    3  0.985025D+00         -0.006553         -0.015088
 Vib (Bot)    4  0.734188D+00         -0.134193         -0.308990
 Vib (Bot)    5  0.267234D+00         -0.573108         -1.319631
 Vib (Bot)    6  0.266052D+00         -0.575033         -1.324062
 Vib (V=0)       0.838811D+03          2.923664          6.731985
 Vib (V=0)    1  0.326911D+02          1.514429          3.487101
 Vib (V=0)    2  0.893789D+01          0.951235          2.190300
 Vib (V=0)    3  0.160466D+01          0.205383          0.472912
 Vib (V=0)    4  0.138827D+01          0.142475          0.328062
 Vib (V=0)    5  0.106693D+01          0.028137          0.064789
 Vib (V=0)    6  0.106638D+01          0.027911          0.064268
 Electronic      0.100000D+01          0.000000          0.000000
 Translational   0.335838D+08          7.526130         17.329554
 Rotational      0.475073D+06          5.676760         13.071223
 ***** Axes restored to original set *****
 -------------------------------------------------------------------
 Center     Atomic                   Forces (Hartrees/Bohr)
 Number     Number              X              Y              Z
 -------------------------------------------------------------------
      1        6           0.001989680    0.000108927    0.000270592
      2        8          -0.000848662    0.000730302   -0.000369691
      3        7          -0.001131125   -0.000463164   -0.000010477
      4        1          -0.000228027    0.000099619    0.000010070
      5        1          -0.000021806    0.000006296   -0.000196390
      6        1           0.000271017   -0.000334189    0.000250192
      7        6           0.002594824   -0.000429834   -0.000306034
      8        8          -0.000616867    0.000024030    0.000443771
      9        7          -0.002877635    0.000615989   -0.000483187
     10        1           0.000326336    0.000216164   -0.000084552
     11        1           0.000415262   -0.000384013    0.000265739
     12        1           0.000127002   -0.000190128    0.000209969
 -------------------------------------------------------------------
 Cartesian Forces:  Max     0.002877635 RMS     0.000823400

 GradGradGradGradGradGradGradGradGradGradGradGradGradGradGradGradGradGrad
 Berny optimization.
 Search for a local minimum.
 Step number   1 out of a maximum of    2
 All quantities printed in internal units (Hartrees-Bohrs-Radians)
 Second derivative matrix not updated -- analytic derivatives used.
 ITU=  0
     Eigenvalues ---   -0.00056  -0.00045  -0.00022  -0.00019   0.00001
     Eigenvalues ---    0.00019   0.00462   0.00749   0.02107   0.02321
     Eigenvalues ---    0.03285   0.03441   0.08860   0.09088   0.15067
     Eigenvalues ---    0.16126   0.20011   0.20273   0.24334   0.24650
     Eigenvalues ---    0.36841   0.37061   0.67342   0.68197   1.16581
     Eigenvalues ---    1.20533   1.22419   1.26179   1.72373   1.73307
 Eigenvalue     1 is  -5.58D-04 should be greater than     0.000000 Eigenvector:
                          Z4        Z10       Z6        Z12       Z2
   1                    0.49284   0.46842  -0.44097  -0.34300  -0.22132
                          Z5        Z7        Y2        Y8        Z9
   1                    0.17868   0.16204  -0.12508   0.11106  -0.10535
 Eigenvalue     2 is  -4.47D-04 should be greater than     0.000000 Eigenvector:
                          Z12       Z10       Z4        Z6        Z5
   1                    0.49950  -0.49447   0.47208  -0.34175   0.18030
                          Z9        Z7        Z11       Z1        Z2
   1                    0.16531  -0.15519   0.12740   0.10801  -0.09617
 Eigenvalue     3 is  -2.17D-04 should be greater than     0.000000 Eigenvector:
                          Z2        Y5        X4        Z4        X10
   1                    0.34214  -0.28417  -0.28140   0.25991   0.23711
                          Y11       Z11       Y12       X11       Y2
   1                    0.23311  -0.22701   0.22304   0.20371   0.19909
 Eigenvalue     4 is  -1.93D-04 should be greater than     0.000000 Eigenvector:
                          Z5        Z2        Z11       Z8        X6
   1                    0.45510  -0.33663   0.28210  -0.27438   0.25070
                          Z3        Y5        Z6        Z10       Y11
   1                    0.22210  -0.20924   0.20774   0.20459   0.18512
 Quadratic step=9.898D+00 exceeds max=3.000D-01 adjusted using Lamda=-1.614D-03.
 Angle between NR and scaled steps=  64.46 degrees.
 Angle between quadratic step and forces=  80.50 degrees.
 Linear search not attempted -- first point.
 TrRot=  0.002057  0.013262 -0.000562  1.030001 -0.002879 -1.030054
 Variable       Old X    -DE/DX   Delta X   Delta X   Delta X     New X
                                 (Linear)    (Quad)   (Total)
    X1        0.00000   0.00199   0.00000  -0.02172  -0.01958  -0.01958
    Y1        0.79557   0.00011   0.00000   0.02006   0.03338   0.82896
    Z1        0.00000   0.00027   0.00000  -0.02432  -0.02290  -0.02290
    X2        2.26578  -0.00085   0.00000  -0.01267  -0.01049   2.25529
    Y2        0.42897   0.00073   0.00000   0.08363   0.09692   0.52589
    Z2        0.00000  -0.00037   0.00000  -0.06584  -0.06180  -0.06180
    X3       -1.77634  -0.00113   0.00000   0.02357   0.02555  -1.75079
    Y3       -1.05447  -0.00046   0.00000  -0.02659  -0.01327  -1.06774
    Z3        0.00000  -0.00001   0.00000   0.01983   0.01401   0.01401
    X4       -0.82581  -0.00023   0.00000  -0.07474  -0.07251  -0.89832
    Y4        2.71365   0.00010   0.00000  -0.00222   0.01114   2.72478
    Z4        0.00000   0.00001   0.00000  -0.02013  -0.01533  -0.01533
    X5       -3.63772  -0.00002   0.00000   0.01396   0.01593  -3.62179
    Y5       -0.65385   0.00001   0.00000  -0.07064  -0.05727  -0.71111
    Z5        0.00000  -0.00020   0.00000   0.03603   0.02831   0.02831
    X6       -1.22454   0.00027   0.00000   0.06854   0.07041  -1.15414
    Y6       -2.88183  -0.00033   0.00000  -0.01375  -0.00050  -2.88233
    Z6        0.00000   0.00025   0.00000   0.03281   0.02339   0.02339
    X7        0.56314   0.00259   0.00000   0.01324   0.00131   0.56444
    Y7        0.56314  -0.00043   0.00000  -0.03213  -0.04223   0.52090
    Z7        9.44863  -0.00031   0.00000   0.00574   0.00730   9.45593
    X8        1.90484  -0.00062   0.00000  -0.04031  -0.05251   1.85233
    Y8       -1.29824   0.00002   0.00000  -0.06978  -0.08024  -1.37848
    Z8        9.44863   0.00044   0.00000   0.12359   0.12237   9.57100
    X9       -2.00122  -0.00288   0.00000   0.00677  -0.00503  -2.00625
    Y9        0.51023   0.00062   0.00000   0.03379   0.02403   0.53426
    Z9        9.44863  -0.00048   0.00000  -0.07641  -0.07862   9.37001
   X10        1.33415   0.00033   0.00000   0.06620   0.05447   1.38862
   Y10        2.50200   0.00022   0.00000  -0.05244  -0.06242   2.43957
   Z10        9.44863  -0.00008   0.00000  -0.06662  -0.05910   9.38953
   X11       -3.03490   0.00042   0.00000   0.04579   0.03400  -3.00090
   Y11        2.11082  -0.00038   0.00000   0.05748   0.04764   2.15846
   Z11        9.44863   0.00027   0.00000  -0.02646  -0.02614   9.42249
   X12       -2.90451   0.00013   0.00000  -0.02941  -0.04153  -2.94604
   Y12       -1.17163  -0.00019   0.00000   0.05291   0.04283  -1.12880
   Z12        9.44863   0.00021   0.00000   0.07624   0.06852   9.51716
         Item               Value     Threshold  Converged?
 Maximum Force            0.002878     0.000450     NO 
 RMS     Force            0.000823     0.000300     NO 
 Maximum Displacement     0.122373     0.001800     NO 
 RMS     Displacement     0.049256     0.001200     NO 
 Predicted change in Energy=-2.074012D-04
 GradGradGradGradGradGradGradGradGradGradGradGradGradGradGradGradGradGrad

 1\1\GINC-DEATHSTAR\Freq\RwB97XD\6-31+G(d)\C2H6N2O2\MMCCULL\06-May-2019
 \0\\# wb97xd/6-31+g* Pop=NaturalOrbital freq\\Formamide dimer frequenc
 y calculation\\0,1\C,0.,0.421,0.\O,1.199,0.227,0.\N,-0.94,-0.558,0.\H,
 -0.437,1.436,0.\H,-1.925,-0.346,0.\H,-0.648,-1.525,0.\C,0.298,0.298,5.
 \O,1.008,-0.687,5.\N,-1.059,0.27,5.\H,0.706,1.324,5.\H,-1.606,1.117,5.
 \H,-1.537,-0.62,5.\\Version=EM64M-G09RevD.01\State=1-A\HF=-339.6878936
 \RMSD=8.851e-09\RMSF=8.234e-04\ZeroPoint=0.0921946\Thermal=0.0986589\D
 ipole=-2.8878712,0.7177691,-0.0000043\DipoleDeriv=1.9373785,0.3815372,
 -0.0041137,0.3752594,1.0961423,-0.0039123,0.0004957,-0.0016679,0.27887
 24,-1.3991223,-0.1615748,0.0048761,0.1487597,-0.5488253,-0.0012955,0.0
 138414,-0.0014712,-0.4257619,-0.818833,-0.3542469,0.003717,-0.6654628,
 -0.7227401,-0.0003273,-0.011542,-0.0083115,-0.7034119,-0.0470618,0.132
 5297,0.0002757,0.12164,-0.1764845,-0.0024132,0.0004244,-0.0024905,0.10
 05837,0.1767261,0.0005183,0.0036284,0.0168338,0.1563492,0.0007615,0.01
 08789,0.0001608,0.3870333,0.1497552,-0.0004785,0.0006151,-0.0000033,0.
 1969636,0.0031145,0.0017176,0.0076268,0.3617381,1.8834689,-0.4346871,0
 .0118843,-0.4272961,1.1389897,0.0001575,0.0007105,-0.0000748,0.2793401
 ,-0.969415,0.2713457,-0.0067957,0.5810147,-0.9821369,0.0041175,-0.0131
 825,0.0067191,-0.42455,-1.2728574,0.2172197,-0.0086381,-0.1019126,-0.2
 5856,-0.0002888,0.0140003,-0.0007877,-0.7079146,0.0201322,-0.0540945,0
 .0000238,-0.06285,-0.225802,-0.0003095,0.0005105,-0.0000143,0.104019,0
 .1730465,-0.018164,-0.0029143,-0.0019742,0.1604288,0.0023599,-0.008062
 4,0.0056034,0.3858982,0.1667823,0.0200953,-0.0025585,0.0159916,0.16567
 52,-0.0019644,-0.0097923,-0.0052922,0.3641536\Polar=60.5493334,-1.8385
 45,49.2232193,0.0540084,0.0622758,33.5666567\PG=C01 [X(C2H6N2O2)]\NIma
 g=4\\1.03447411,-0.07266181,0.70390119,-0.00036094,0.00046393,0.185829
 56,-0.72482240,0.12980040,0.00025732,0.84532200,0.12154101,-0.13996697
 ,-0.00018829,-0.11392937,0.10500378,-0.00010375,-0.00021824,-0.0729299
 8,0.00000860,-0.00006786,0.03199218,-0.23098906,-0.11924851,-0.0000034
 5,-0.08715706,-0.04554030,0.00009077,0.87714345,-0.09895280,-0.3005770
 6,0.00002471,-0.03339315,0.03178749,0.00010882,-0.03825399,0.83311019,
 0.00015458,-0.00007959,-0.04327231,-0.00007858,0.00009715,0.01867435,0
 .00013902,-0.00011065,0.01637266,-0.08519977,0.07492449,0.00000464,-0.
 03092273,0.03836384,0.00007263,0.01178402,-0.02407052,0.00000483,0.106
 50724,0.06458618,-0.25787774,-0.00012443,0.02014790,0.00336901,0.00001
 582,0.00618887,-0.02992069,0.00001571,-0.08649602,0.28758025,-0.000082
 34,0.00006635,-0.06063768,0.00008300,-0.00003261,0.01966594,0.00002745
 ,-0.00006526,0.01127107,-0.00001564,0.00002571,0.02467619,-0.01400352,
 0.01294836,0.00002069,-0.00095912,-0.00537613,0.00000213,-0.45832984,0
 .08634993,-0.00004187,0.00057363,-0.00070838,-0.00001245,0.47231623,-0
 .02507377,0.01835935,-0.00003167,-0.00427499,-0.00477217,0.00000999,0.
 08685549,-0.09947246,-0.00002485,0.00075615,-0.00128664,0.00000587,-0.
 08908493,0.08361215,0.00010041,0.00003535,-0.01036675,-0.00004494,0.00
 001789,0.00824932,-0.00012887,-0.00004521,0.00283584,0.00000400,-0.000
 00029,-0.00136126,-0.00002038,0.00004506,0.00585623,0.02068120,-0.0256
 3439,0.00001523,-0.00155146,0.00494146,0.00000953,-0.11252047,0.108217
 49,0.00004287,-0.00274830,-0.00372463,-0.00001790,0.00035988,0.0308300
 4,0.00000426,0.09578906,0.01079857,-0.02379966,-0.00004321,0.00150952,
 0.00456994,0.00001387,0.10991624,-0.43498999,0.00004814,-0.00348085,-0
 .00187756,0.00001294,-0.00411698,0.00355702,-0.00001484,-0.11464082,0.
 45257705,-0.00003292,-0.00005422,0.00118427,0.00002628,-0.00002001,-0.
 00558044,0.00000785,0.00010775,-0.00578793,-0.00001647,-0.00000669,0.0
 0639771,0.00000887,-0.00000135,-0.00514677,-0.00012219,-0.00002360,0.0
 0885372,0.00461521,0.00045242,-0.00007119,-0.00301582,0.00064214,-0.00
 078065,-0.00181129,-0.00113939,0.00116975,-0.00016886,0.00039736,-0.00
 000681,0.00006507,-0.00008824,-0.00089486,0.00028716,-0.00015007,-0.00
 004614,0.79440309,-0.00067993,0.00130182,-0.00010928,0.00054606,-0.000
 86908,0.00028496,0.00013357,-0.00050356,0.00027861,0.00024624,-0.00030
 900,0.00002943,-0.00006198,0.00008884,0.00010427,-0.00016571,0.0000616
 0,-0.00039002,-0.16358369,0.94614460,-0.00016803,0.00010877,-0.0002625
 8,0.00007691,-0.00003840,0.00030946,0.00005844,0.00001509,0.00045212,0
 .00000505,0.00002566,-0.00004513,-0.00008372,-0.00000509,-0.00012430,-
 0.00001493,-0.00008734,-0.00017562,0.00044862,-0.00021139,0.18675633,-
 0.00214138,-0.00013620,0.00001894,0.00142620,-0.00034118,0.00035727,0.
 00083208,0.00052059,-0.00047703,0.00010114,-0.00018470,0.00001125,-0.0
 0003345,0.00003867,0.00036958,-0.00013981,0.00004863,0.00005170,-0.306
 31229,0.29765852,-0.00017457,0.36119555,0.00100347,-0.00084242,0.00001
 589,-0.00073348,0.00068682,-0.00023599,-0.00029164,0.00023796,0.000030
 05,-0.00018185,0.00027783,-0.00002650,0.00004768,-0.00008855,-0.000229
 21,0.00015049,-0.00011034,0.00027216,0.28795198,-0.55963270,0.00018800
 ,-0.37093353,0.58961821,0.00060268,-0.00026701,0.00028817,-0.00036637,
 0.00022630,-0.00040429,-0.00020197,-0.00002278,-0.00037328,-0.00006043
 ,0.00006325,0.00004793,0.00007787,-0.00000676,0.00007890,0.00007604,0.
 00006468,0.00026903,0.00017671,-0.00026627,-0.07357901,-0.00014498,0.0
 0006415,0.03259370,-0.00284282,-0.00039747,0.00000428,0.00186581,-0.00
 035046,0.00046082,0.00114283,0.00075910,-0.00070968,0.00007941,-0.0002
 2778,-0.00000042,-0.00007668,0.00004639,0.00060483,-0.00017956,0.00010
 009,0.00000824,-0.37348347,-0.04525229,-0.00013001,-0.06736498,0.05379
 988,-0.00015959,0.81605290,-0.00038016,-0.00047834,0.00000199,0.000212
 36,0.00016746,0.00003722,0.00020382,0.00031773,-0.00022891,-0.00005028
 ,0.00005744,-0.00001285,0.00000312,-0.00003044,0.00008045,0.00000079,-
 0.00000078,0.00011937,-0.02484362,-0.15537349,-0.00006161,0.06570439,0
 .01193443,0.00009626,-0.02194501,0.88851624,-0.00130240,-0.00038055,0.
 00051619,0.00082656,-0.00010978,-0.00020304,0.00052803,0.00033408,-0.0
 0132152,0.00002753,-0.00015377,0.00007831,0.00015474,0.00005337,0.0006
 3452,-0.00004130,0.00019333,0.00034579,0.00009960,0.00004186,-0.043303
 01,-0.00007888,0.00002641,0.01875707,-0.00022283,0.00004296,0.01602179
 ,-0.00001886,-0.00012214,-0.00003103,-0.00000782,0.00004127,0.00001859
 ,0.00002762,0.00007006,-0.00000902,-0.00001680,0.00002601,-0.00001181,
 -0.00000997,-0.00001592,0.00001330,-0.00000538,-0.00000322,0.00000621,
 -0.10208027,-0.08316045,-0.00006473,0.01540762,0.02665845,0.00003264,-
 0.01804387,-0.03588052,-0.00001478,0.11105341,-0.00031028,-0.00033141,
 -0.00002484,0.00017391,0.00013638,0.00006048,0.00015133,0.00023434,-0.
 00010476,-0.00003699,0.00004192,-0.00001479,-0.00000318,-0.00001811,0.
 00003531,0.00000795,-0.00002068,0.00007717,-0.09307548,-0.24446702,-0.
 00000130,0.00772409,-0.04259543,0.00006485,-0.00550012,0.00013046,-0.0
 0000823,0.09210790,0.28591342,-0.00009346,-0.00002903,-0.00003654,0.00
 005413,0.00001612,0.00007357,0.00003539,0.00003695,0.00006827,-0.00000
 604,0.00000723,-0.00001156,-0.00001311,-0.00000131,-0.00002585,-0.0000
 0286,-0.00001350,-0.00003464,-0.00003921,0.00023717,-0.06106392,0.0000
 4629,-0.00008476,0.01971134,-0.00002862,-0.00006208,0.01140849,0.00007
 394,-0.00007982,0.02487515,0.00012521,0.00005866,0.00006518,-0.0000888
 3,-0.00001767,-0.00006411,-0.00004968,-0.00005173,-0.00008636,0.000014
 68,-0.00000503,0.00001319,0.00004469,-0.00001019,0.00000550,-0.0000009
 2,0.00000600,0.00004350,-0.00369031,0.03510871,0.00000352,-0.00775773,
 -0.00241426,-0.00002052,-0.19273951,0.17864357,0.00004264,-0.00035606,
 -0.00164507,0.00000585,0.18924253,0.00009473,0.00020209,-0.00004795,-0
 .00005098,-0.00005997,0.00003268,-0.00007380,-0.00011392,0.00014357,0.
 00001777,-0.00001559,0.00000200,-0.00000617,0.00001504,-0.00008076,0.0
 0000035,-0.00001424,-0.00004605,-0.00266216,0.00816548,0.00005006,-0.0
 0137853,0.00198816,-0.00001090,0.17891773,-0.36320363,-0.00007069,-0.0
 0020057,-0.00034428,-0.00001287,-0.19364597,0.36485685,0.00052330,-0.0
 0015530,-0.00015679,-0.00037145,0.00014899,0.00007800,-0.00016543,0.00
 003611,0.00038295,-0.00003307,0.00013100,-0.00005352,-0.00003978,-0.00
 007417,-0.00027506,0.00001017,-0.00007547,-0.00005915,-0.00005144,0.00
 004307,-0.01016704,0.00001626,-0.00002963,0.00817638,0.00011611,-0.000
 10289,0.00224295,-0.00000459,-0.00000998,-0.00133535,0.00002832,0.0000
 6035,0.00637234,0.00012206,0.00001621,0.00008032,-0.00008877,0.0000254
 0,-0.00007184,-0.00007260,-0.00005559,-0.00010851,-0.00000366,0.000000
 20,0.00001249,0.00005308,0.00002129,-0.00001285,0.00002859,0.00001288,
 0.00006505,-0.00880823,-0.04078905,0.00004345,0.00478704,0.00494281,-0
 .00001210,-0.16441006,-0.16166846,-0.00001890,-0.00594961,0.00040594,-
 0.00003230,0.01525592,0.01898760,-0.00002840,0.15908622,0.00003480,0.0
 0010917,0.00006316,-0.00000819,-0.00005269,-0.00004175,-0.00004107,-0.
 00011003,-0.00006445,0.00000801,-0.00003923,0.00000970,0.00000865,0.00
 003598,0.00005199,0.00001697,0.00004765,-0.00003452,-0.00390124,0.0053
 9251,0.00001757,0.00127926,-0.00147396,-0.00000577,-0.15995008,-0.3820
 3707,0.00003101,0.00047914,0.00132040,-0.00001411,-0.01602702,-0.01147
 596,0.00002790,0.17810076,0.38828324,0.00076288,0.00050953,-0.00015557
 ,-0.00047146,-0.00004951,0.00007493,-0.00038724,-0.00041960,0.00069778
 ,0.00001296,0.00000080,-0.00002802,-0.00005298,0.00003091,-0.00035483,
 0.00004107,-0.00007500,-0.00026597,-0.00000437,-0.00004241,0.00120269,
 0.00000416,0.00000943,-0.00556594,0.00005686,0.00009010,-0.00517754,-0
 .00000873,0.00000592,0.00637104,-0.00003672,-0.00001945,-0.00520573,0.
 00008358,-0.00004072,0.00840715\\-0.00198968,-0.00010893,-0.00027059,0
 .00084866,-0.00073030,0.00036969,0.00113113,0.00046316,0.00001048,0.00
 022803,-0.00009962,-0.00001007,0.00002181,-0.00000630,0.00019639,-0.00
 027102,0.00033419,-0.00025019,-0.00259482,0.00042983,0.00030603,0.0006
 1687,-0.00002403,-0.00044377,0.00287763,-0.00061599,0.00048319,-0.0003
 2634,-0.00021616,0.00008455,-0.00041526,0.00038401,-0.00026574,-0.0001
 2700,0.00019013,-0.00020997\\\@


 MY DESCRIPTION OF EXPERIENCE IS NOT WHAT HAPPENS
 TO A MAN.  EXPERIENCE IS WHAT A MAN DOES WITH WHAT
 HAPPENS TO HIM.
                         - CHUCK KNOX, SEATTLE SEAHAWKS, 1985
 Job cpu time:       0 days  0 hours  1 minutes 59.0 seconds.
 File lengths (MBytes):  RWF=     26 Int=      0 D2E=      0 Chk=      2 Scr=      1
 Normal termination of Gaussian 09 at Mon May  6 14:21:08 2019.
